LAMMPS data file via write_data, version 17 Apr 2024, timestep = 3000000, units = real

163 atoms
16 atom types
190 bonds
19 bond types
161 angles
7 angle types
9 dihedrals
1 dihedral types
4 impropers
1 improper types

0 65 xlo xhi
0 65 ylo yhi
0 65 zlo zhi

Masses

1 72
2 72
3 72
4 72
5 72
6 45
7 72
8 72
9 72
10 72
11 72
12 72
13 72
14 72
15 45
16 45

PairIJ Coeffs # lj/cut/coul/cut

1 1 1.195 4.7 22
1 2 0.740879 4.7 22
1 3 1.195 4.7 22
1 4 1.33838 4.7 22
1 5 0.478004 4.7 22
1 6 0.740879 4.7 22
1 7 0.478004 4.7 22
1 8 0.549674 4.7 22
1 9 1.195 4.7 22
1 10 1.33838 4.7 22
1 11 1.33838 4.7 22
1 12 0.836521 4.7 22
1 13 0.955973 4.7 22
1 14 1.195 4.7 22
1 15 0.645349 4.7 22
1 16 1.195 4.7 22
2 2 0.836521 4.7 22
2 3 0.836521 4.7 22
2 4 0.740879 4.7 22
2 5 0.740879 4.7 22
2 6 0.836521 4.7 22
2 7 0.740879 4.7 22
2 8 0.836521 4.7 22
2 9 0.836521 4.7 22
2 10 0.740879 4.7 22
2 11 0.740879 4.7 22
2 12 0.836521 4.7 22
2 13 0.836521 4.7 22
2 14 0.836521 4.7 22
2 15 0.836521 4.7 22
2 16 0.836521 4.7 22
3 3 1.07549 4.7 22
3 4 0.955973 4.7 22
3 5 0.645349 4.7 22
3 6 0.836521 4.7 22
3 7 0.645349 4.7 22
3 8 0.645349 4.7 22
3 9 1.07549 4.7 22
3 10 1.195 4.7 22
3 11 1.195 4.7 22
3 12 0.836521 4.7 22
3 13 1.07549 4.7 22
3 14 1.07549 4.7 22
3 15 0.740879 4.7 22
3 16 1.07549 4.7 22
4 4 1.195 4.7 22
4 5 0.478004 4.7 22
4 6 0.740879 4.7 22
4 7 0.549674 4.7 22
4 8 0.645349 4.7 22
4 9 1.07549 4.7 22
4 10 1.33838 4.7 22
4 11 1.33838 4.7 22
4 12 0.836521 4.7 22
4 13 0.955973 4.7 22
4 14 0.955973 4.7 22
4 15 0.645349 4.7 22
4 16 1.07549 4.7 22
5 5 0.836521 4.7 22
5 6 0.740879 4.7 22
5 7 0.836521 4.7 22
5 8 0.836521 4.7 22
5 9 0.645349 4.7 22
5 10 0.478004 4.7 22
5 11 0.478004 4.7 22
5 12 0.645349 4.7 22
5 13 0.645349 4.7 22
5 14 0.645349 4.7 22
5 15 0.740879 4.7 22
5 16 0.645349 4.7 22
6 6 0.627412 4.3 22
6 7 0.740879 4.7 22
6 8 0.836521 4.7 22
6 9 0.836521 4.7 22
6 10 0.740879 4.7 22
6 11 0.740879 4.7 22
6 12 0.836521 4.7 22
6 13 0.836521 4.7 22
6 14 0.836521 4.7 22
6 15 0.627412 4.3 22
6 16 0.627412 4.3 22
7 7 0.836521 4.7 22
7 8 0.836521 4.7 22
7 9 0.740879 4.7 22
7 10 0.549674 4.7 22
7 11 0.478004 4.7 22
7 12 0.740879 4.7 22
7 13 0.645349 4.7 22
7 14 0.645349 4.7 22
7 15 0.740879 4.7 22
7 16 0.740879 4.7 22
8 8 0.836521 4.7 22
8 9 0.836521 4.7 22
8 10 0.645349 4.7 22
8 11 0.549674 4.7 22
8 12 0.836521 4.7 22
8 13 0.645349 4.7 22
8 14 0.645349 4.7 22
8 15 0.836521 4.7 22
8 16 0.836521 4.7 22
9 9 1.07549 4.7 22
9 10 1.33838 4.7 22
9 11 1.195 4.7 22
9 12 0.955973 4.7 22
9 13 1.07549 4.7 22
9 14 1.07549 4.7 22
9 15 0.836521 4.7 22
9 16 1.07549 4.7 22
10 10 1.33838 4.7 22
10 11 1.33838 4.7 22
10 12 0.836521 4.7 22
10 13 1.195 4.7 22
10 14 1.195 4.7 22
10 15 0.645349 4.7 22
10 16 1.33838 4.7 22
11 11 1.195 4.7 22
11 12 0.836521 4.7 22
11 13 1.195 4.7 22
11 14 0.955973 4.7 22
11 15 0.645349 4.7 22
11 16 1.195 4.7 22
12 12 0.836521 4.7 22
12 13 0.836521 4.7 22
12 14 0.836521 4.7 22
12 15 0.836521 4.7 22
12 16 0.955973 4.7 22
13 13 0.955973 4.7 22
13 14 1.07549 4.7 22
13 15 0.740879 4.7 22
13 16 1.07549 4.7 22
14 14 0.955973 4.7 22
14 15 0.740879 4.7 22
14 16 1.07549 4.7 22
15 15 0.627412 4.3 22
15 16 0.627412 4.3 22
16 16 0.806629 4.3 22

Bond Coeffs # harmonic

1 1.49379 3.5
2 2.98757 4
3 5.97514 4
4 8.96271 3.1
5 5.97514 3.3
6 5.97514 2.8
7 8.96271 3.3
8 8.96271 3
9 8.96271 2.5
10 8.96271 3.2
11 5.97514 3.2
12 5.97514 3.4
13 2.98757 6.4
14 2.98757 9.7
15 100 3.3
16 100 3.1
17 100 2.7
18 100 2.65
19 100 2.6

Angle Coeffs # cosine/squared

1 2.39006 127
2 2.98757 134
3 2.39006 100
4 83.652 96
5 2.98757 100
6 5.97514 150
7 2.98757 180

Dihedral Coeffs # fourier

1 1 95.6023 1 -120

Improper Coeffs # harmonic

1 5.97514 0

Atoms # full

90 1 3 0 22.835911194883288 31.234711026282973 29.129367956449705 0 0 0
129 1 10 0 28.76805525951755 25.07406032681984 23.97307088749737 0 0 0
105 1 10 0 25.524855016084643 27.85540989248769 32.1151747846801 0 0 0
123 1 10 0 27.37488878531651 23.4246996293863 29.08588504472277 0 0 0
99 1 3 0 20.020684148038505 26.85669339339491 26.104017962665086 0 0 0
94 1 3 0 25.311412916697666 29.03229888352624 23.77966668212002 0 0 0
141 1 9 0 31.992372387757854 29.785353062481928 19.952357931208873 0 0 0
103 1 3 0 23.48922040308093 26.81119833170474 30.10912550393667 0 0 0
104 1 4 0 19.69076615468495 27.659482745267802 31.179430441785374 0 0 0
92 1 3 0 24.34718040166845 30.838770465577962 26.208819224551203 0 0 0
102 1 1 1 25.22891430848738 21.182670187612587 24.83071885808098 0 0 0
126 1 16 0 21.64449202535616 21.612071892572498 29.98080705352769 0 0 0
116 1 9 0 31.149552352358906 27.100762954267456 31.67059803585078 0 0 0
106 1 5 0 27.56474415103539 30.67617921736458 31.61004665758261 0 0 0
128 1 10 0 28.870131833665873 28.60284174078191 27.617451886897133 0 0 0
131 1 10 0 30.058058509760055 22.00290973511762 24.29565003203316 0 0 0
132 1 4 0 29.93930680074574 19.582082801114932 21.450256214741625 0 0 0
130 1 5 0 27.281783936914174 25.560922745003303 21.308371324475367 0 0 0
140 1 3 0 30.75363826394805 29.360177305036274 22.243866567145712 0 0 0
142 1 3 0 29.934135141794584 32.23356309107948 24.15363074273054 0 0 0
98 1 12 0 22.052009300482066 27.91961029967775 22.920411464328033 0 0 0
124 1 15 0 24.36906128427237 21.98099524813806 29.711311211145095 0 0 0
122 1 11 -1 28.84712926611786 17.959293238371394 27.44975356983266 0 0 0
95 1 6 0 26.012855661698985 30.050378051721705 21.399025180209197 0 0 0
127 1 3 0 28.263482969715696 26.19299353360812 26.468186743597453 0 0 0
119 1 10 0 30.1825895400242 20.020045570451817 32.10145645047097 0 0 0
100 1 3 0 23.313788835625257 25.735513287196166 27.247116610226662 0 0 0
121 1 10 0 29.000032798833864 20.503751591451064 29.11810592994329 0 0 0
101 1 8 0 23.774855569226883 23.572308467963012 24.738866663334267 0 0 0
12 1 7 0 31.79141610970659 32.336533355433005 29.279052756037064 0 0 0
97 1 6 0 27.01161420391918 30.21647589223451 18.915857259611176 0 0 0
43 1 9 0 32.491153642520416 24.001779025436036 28.32372838600021 0 0 0
137 1 11 -1 32.13735602102203 24.72143196111982 20.344228816140568 0 0 0
125 1 15 0 23.469214633896698 19.952498104507058 31.118577593840147 0 0 0
93 1 5 0 22.59359633770622 32.387189487781114 24.214652297285543 0 0 0
96 1 6 0 26.73170468314939 32.46127879722236 20.411679171785657 0 0 0
107 1 10 0 25.340498785841636 27.034974420428796 34.66461428108116 0 0 0
49 1 5 0 31.448263148531705 20.417588532595715 38.88951223440205 0 0 0
109 1 3 0 26.356885473094362 29.444038652394024 36.517804197789054 0 0 0
113 1 12 0 28.414163659494864 24.852057104530875 39.00480113500949 0 0 0
58 1 1 1 31.483624570964338 29.84144617161207 39.944370780997865 0 0 0
115 1 10 0 30.09071384350109 25.42802732073399 33.43651432390504 0 0 0
118 1 5 0 25.849558557717444 21.5772223278541 34.80992944146485 0 0 0
110 1 11 -1 25.32575764403239 29.138031091160563 39.18624135473549 0 0 0
114 1 1 1 25.642583630833172 24.107569340371235 39.70045446471851 0 0 0
117 1 3 0 28.972039410186287 22.48012774486984 33.62909298146586 0 0 0
112 1 10 0 30.27555534268719 26.36222757555331 36.56295954443029 0 0 0
111 1 3 0 29.2844786037105 29.863851937425213 35.9793818262139 0 0 0
88 1 12 0 20.845422523984478 31.078251450458033 34.16490745547575 0 0 0
108 1 11 -1 22.113045251267923 24.636032011225105 34.65429078638887 0 0 0
89 1 1 1 20.144204576822023 29.80203437161738 37.07760221828869 0 0 0
120 1 9 0 30.08163026744788 17.702710014056315 33.25487803203327 0 0 0
143 1 5 0 31.03392690725878 34.424509125259036 21.997204968988335 0 0 0
13 1 3 0 30.64582121923574 37.47174425980008 27.329286661760896 0 0 0
15 1 1 1 31.35787835315701 40.102448227126445 22.087484931863905 0 0 0
16 1 3 0 28.353435766642924 39.956792797629944 28.618185887733755 0 0 0
149 1 5 0 28.84734808492101 35.254868393032794 31.284353315121336 0 0 0
17 1 9 0 28.932183629252002 42.10483327462016 27.210818643829057 0 0 0
145 1 15 0 26.805260935247553 36.375823956875074 24.1394711856388 0 0 0
147 1 16 0 24.752167917127576 37.266397380135466 22.52702521836957 0 0 0
91 1 5 0 20.351878257133457 32.88184873543867 28.590703506731536 0 0 0
151 1 7 0 22.786068423539902 36.85789890760893 27.158745067152477 0 0 0
18 1 3 0 26.600136864044014 39.96882526114016 31.54927921317166 0 0 0
11 1 3 0 32.111316975730915 34.55568050493713 27.764587395947096 0 0 0
146 1 16 0 26.029081917092995 39.020457541322756 24.194170092333593 0 0 0
14 1 8 0 31.12840105458352 38.74222486995578 24.586238857207057 0 0 0
19 1 5 0 23.88269485574857 41.82963729968897 30.245047922526744 0 0 0
148 1 3 0 26.592900268654347 35.21098391566284 29.20998557291568 0 0 0
150 1 3 0 23.24335989089008 36.63283761268048 29.718155376568692 0 0 0
144 1 3 0 27.69969488047194 33.827776024786935 25.840348343239746 0 0 0
153 1 5 0 19.16080001337793 35.71705358515248 32.25417452788024 0 0 0
22 1 10 0 31.401091023972654 39.04022515600482 32.478949901536026 0 0 0
86 1 4 0 23.303784380218307 33.995968947028764 37.89837964710331 0 0 0
82 1 11 -1 27.0407489411315 33.54984298243522 41.39259518830455 0 0 0
156 1 1 1 26.119578357206066 43.1653801957942 38.09051915297071 0 0 0
158 1 5 0 23.485574766313903 37.85365550516373 41.226294878385936 0 0 0
160 1 12 0 29.00389729470931 38.65965645887594 42.37057266708555 0 0 0
85 1 3 0 25.032143570097766 34.25179438496595 34.30409504576665 0 0 0
152 1 3 0 21.862028211846496 37.987471720242695 32.89316394233088 0 0 0
159 1 10 0 28.218610507629517 39.05069952075557 39.072701944917476 0 0 0
155 1 12 0 23.872270905369078 41.82935170803892 35.959302179987404 0 0 0
83 1 10 0 28.207192237368524 34.769647072546725 36.19269527387234 0 0 0
154 1 10 0 23.96511911687935 38.84697385937814 35.30605342357865 0 0 0
20 1 3 0 28.456110072258987 41.20096790597739 33.53143745448487 0 0 0
157 1 10 0 25.951243397056196 38.27756804267697 38.725049569554066 0 0 0
161 1 1 1 28.745070817458945 36.92321764737612 44.920712935470036 0 0 0
162 1 10 0 30.754622257581104 39.71586206990087 37.39451768938031 0 0 0
81 1 10 0 29.042418590314256 33.78718365557536 39.00363526971608 0 0 0
163 1 11 -1 32.48860950333501 42.5537062738813 38.29073839154718 0 0 0
84 1 4 0 32.059084337705634 35.31700798283121 35.836033265852194 0 0 0
21 1 9 0 28.816401134482685 43.685275024913494 34.2918818426431 0 0 0
79 1 4 0 31.829903656994844 34.91130153038558 40.475289874772436 0 0 0
80 1 8 0 32.337564761772185 33.35659459417815 43.12563684208513 0 0 0
87 1 3 0 23.369358806583374 32.82813090072138 32.80491519620005 0 0 0
139 1 9 0 34.02262537025252 28.2346239757038 26.56809131588404 0 0 0
1 1 1 1 39.005726915954924 26.491742820834247 23.632685276116867 0 0 0
71 1 1 1 42.68767720906645 32.18208715409525 30.71972382633109 0 0 0
39 1 11 -1 42.00902513773816 25.46807697184036 28.046784197591187 0 0 0
6 1 5 0 36.18837927508249 32.39438633218321 20.239216028351468 0 0 0
45 1 11 -1 37.98332298550395 20.849787007512223 31.508434265164055 0 0 0
42 1 3 0 33.97248351347359 23.392482954542153 30.138143277952718 0 0 0
134 1 8 0 34.29217808138749 19.39185574339127 26.477129309617133 0 0 0
5 1 3 0 36.34861455039372 31.513601598239674 23.120496465730533 0 0 0
35 1 11 -1 43.12490213605174 29.46747655398428 24.95040110381921 0 0 0
3 1 3 0 38.097726023332285 28.95985388856437 22.983975510959436 0 0 0
37 1 7 0 36.88310475920285 31.29278758444912 29.888227130786923 0 0 0
135 1 1 1 34.15593554835359 18.516286608493637 29.28356838854834 0 0 0
136 1 3 0 34.59560494877783 25.136775819878824 22.77008313809389 0 0 0
38 1 10 0 38.12769551398313 26.133353300308592 28.644674835244874 0 0 0
34 1 3 0 40.38241914735354 30.595001816872358 26.77721151371659 0 0 0
41 1 8 0 38.850228645611 21.448546215481482 26.88468821257053 0 0 0
40 1 12 0 36.97457851219583 23.431681440226473 27.526395912503858 0 0 0
44 1 10 0 35.02645095847275 22.119966023312806 32.42201216281839 0 0 0
36 1 10 0 38.448453383024074 29.282208065099695 28.843745416825165 0 0 0
4 1 4 0 40.70554006496725 30.686038800405722 20.81980502333871 0 0 0
138 1 10 0 32.91805605620012 27.772908298857423 24.596493464055776 0 0 0
2 1 2 0 40.12610353263623 25.430261172186114 20.106316376380413 0 0 0
133 1 3 0 33.61776694729449 21.916766802205895 24.34482842717706 0 0 0
55 1 7 0 35.52120950864943 27.257800016342348 32.44753238441496 0 0 0
46 1 10 0 33.761040573462964 20.343079954699977 35.036826468557095 0 0 0
60 1 12 0 38.57737074269901 30.135527052845205 34.358843225893814 0 0 0
47 1 9 0 34.7442732280832 18.06038530403591 35.64681062626917 0 0 0
56 1 12 0 35.2699923690132 28.524767583044785 37.16037819165656 0 0 0
64 1 5 0 33.46999698718924 31.409097954987303 33.53235438016675 0 0 0
53 1 10 0 38.9104082353237 21.661197180794716 36.180901302626886 0 0 0
59 1 2 0 38.26416982330595 29.350863605793517 37.41005275397565 0 0 0
54 1 13 0 35.47258675051527 26.38345331951034 34.94754344667365 0 0 0
57 1 8 0 33.32133217020113 30.389548112820794 38.44444937213612 0 0 0
61 1 8 0 40.7706450258133 28.339094061437734 33.011493405219554 0 0 0
48 1 13 0 32.77005079964528 22.653058880084117 37.20662042454952 0 0 0
50 1 13 0 35.3217840702881 23.64236556305776 38.78715530450472 0 0 0
52 1 13 0 37.22360839499425 24.193990579615885 36.35990769886543 0 0 0
63 1 12 0 36.280103407305155 32.31410843576435 34.42335584664295 0 0 0
62 1 1 1 40.49742047666826 25.612193307748974 32.83852575287822 0 0 0
51 1 11 -1 33.0614834922463 25.397906282872245 41.73514425020499 0 0 0
31 1 9 0 40.866306774863624 38.18498545259134 28.40964986934125 0 0 0
70 1 8 0 40.87565304142624 33.64309553372852 31.66673054330985 0 0 0
33 1 5 0 41.04038769487835 34.62193995973721 23.663620309948342 0 0 0
32 1 3 0 40.27516165935067 33.833708542684136 26.61160899252522 0 0 0
27 1 9 0 33.66188646756501 42.86545230425844 26.344609641363416 0 0 0
7 1 3 0 34.86113212346868 33.08774036034796 25.007680129139537 0 0 0
73 1 11 -1 39.07559174846485 41.53649407939308 31.222054919829656 0 0 0
26 1 3 0 33.858031378063664 41.158424051565596 28.258843920556256 0 0 0
30 1 3 0 38.895434580526654 36.45504231658231 28.02494330704597 0 0 0
23 1 10 0 32.77091042819677 41.849187498948 31.52562627509309 0 0 0
28 1 3 0 35.49996860773726 37.94512946336652 29.466620792400636 0 0 0
29 1 5 0 34.8858503927491 35.766573864010134 31.60453718384898 0 0 0
9 1 6 0 36.506001001409494 38.47760121650464 24.171709931864736 0 0 0
10 1 6 0 36.971946997217586 36.775395666083206 22.017731879863618 0 0 0
8 1 6 0 35.442837345068696 36.0433412890212 24.195945443001083 0 0 0
77 1 4 0 33.80219449897791 37.57237973427 40.82819402948424 0 0 0
78 1 8 0 35.43111589665634 38.25071510430083 43.11508684060094 0 0 0
65 1 14 0 37.15868857892996 34.19571444419384 36.77977419793347 0 0 0
67 1 14 0 39.973242591225066 34.8112210288061 35.75531199928425 0 0 0
66 1 4 0 37.127370248005455 33.61962406917727 40.52385419422722 0 0 0
68 1 11 -1 40.652035972793264 36.72214562020898 38.28086618266913 0 0 0
72 1 14 0 38.03846258499143 38.661273819277994 33.60465653518347 0 0 0
76 1 5 0 37.934687414794844 40.96668819559628 39.184992191338914 0 0 0
75 1 10 0 35.872411451671944 38.81529087645232 38.340110017632085 0 0 0
25 1 1 1 36.65605517908461 43.641342656709135 35.59400061798642 0 0 0
74 1 10 0 35.37523080029922 38.652957972832205 35.511698351030994 0 0 0
69 1 14 0 39.45982534793201 36.0143525481006 32.96972628981262 0 0 0
24 1 8 0 34.45592043697018 43.827206286177834 33.539414528175286 0 0 0

Velocities

90 -0.0011961550835970051 -0.0011055707087909595 0.0006832100743004569
129 -0.0002843263404298321 -0.0019285481216599514 0.0014437260255834412
105 -0.0003605801611756817 -0.0013234368865503393 -0.004085212198223164
123 0.00011857588807124176 -0.0036131828007573883 0.0024631644330022394
99 -0.0020397302073278593 0.0008200800014146081 -0.0006605804915327156
94 0.0007872839573748316 -0.0006135784389034808 -0.00013450542445276684
141 -0.0015184495957766893 -0.0035603351962456803 -0.00036339484296107666
103 0.0027538165448033505 0.00028115659246831976 -0.0036804558246834873
104 -0.0001687043965044997 -0.0004212567131310878 0.0004587953006455599
92 0.0011358420665326743 0.0021308107712159274 0.001837150830206428
102 0.0012617293905756637 0.0008155536420860724 9.040544964355575e-06
126 -0.0058916530399356105 -0.0019000849617735337 -0.003402195304807835
116 0.0011724247859804234 0.0007400922929770824 -0.001630101460959228
106 0.0027987474027679387 0.000988371425579843 0.0023937488290954054
128 -0.0013421299461300355 -0.001734836607426947 0.003995181713463256
131 -0.000575102320373748 0.00251297893993298 -0.0013074874649787295
132 0.002405857321477611 -0.0018224683878240897 0.0007026130390224564
130 0.0008622095727059048 -0.001591410151590453 -0.002913194211089223
140 -0.0014384778764969619 3.849325866776288e-05 0.002670015674720187
142 -0.002486516440443163 -0.002568088931519305 -0.0002867595121192364
98 0.0008224087999623443 0.0020063652833137457 0.0004557128076366836
124 -0.0006753523451654256 -0.0009253159433903187 -0.0001050600584651122
122 0.00013032339454693915 -0.0009901704329084175 0.001073242262021807
95 0.001449771702104867 0.0004942186136131173 0.0008008357014669457
127 0.0009049304392364234 -0.0030133777867521997 0.00048070235531270597
119 0.000694273610658405 -0.0005067551698595568 0.00031178352739917283
100 0.0025610036185275097 -0.0006336944536000178 -0.0019831353990502937
121 -0.0009831880417168998 -0.001939483856103561 -0.00038577375160779326
101 0.001529432130018605 0.0016861035608931197 -0.0021922749143104717
12 -0.001093623569602968 -0.0011289406268932985 -1.060822085213738e-05
97 -0.003926482363130625 -0.0029063175846934385 0.002593301696265595
43 -0.0014605768989991602 -0.0013640628627128528 0.0019814679357340534
137 0.002369283945718997 0.0007019461602627545 0.0011090119520135386
125 4.261748580688978e-05 0.0002767652666876555 0.0022316570748783402
93 -0.0010356733948634219 -0.0010942748627566596 -0.0010894291019370517
96 -0.0013266076019752345 0.0014321919447633877 -0.0006435255580694211
107 -0.0022328516511524728 0.0016122691054884523 -0.0026253518766589214
49 -0.005080754436975373 0.0013699705461012576 0.0019882617247027282
109 -0.0005468986212567841 -0.0007013889795025539 0.0006672613089321901
113 0.002438041799950941 -0.0009403775552803016 -0.002724460329058459
58 -0.00030408464428051233 -0.0019384081900842725 0.0012926163552365556
115 0.0002595088256565522 -0.0022392509937447735 -0.0016520840066667072
118 -0.0006922688092268107 0.004791934946931054 -0.0006156005865470115
110 -0.0033418104908215546 -0.004562891662276199 7.151091840241352e-05
114 0.0008981185842388442 -0.0025117353926059336 0.0005313744617092374
117 -0.0016173464672054527 -0.00034509417927670687 -0.001487549570674608
112 -0.0003453690701762658 -0.0004889234765615339 0.0008076762544930559
111 -0.0002846551092743262 0.0033061724280474187 0.0017942500757801578
88 -0.0014463769164782603 0.0004996087628049349 -0.00014986176435711227
108 0.0001680416761135415 0.003675566588549815 -0.00033389345091398246
89 -0.00010682948495927526 0.0021066707473897228 0.0007515394752975246
120 0.003193971838104583 0.0007864926989749043 0.0012656229880952789
143 0.0019974674685559577 0.00012131691141444327 -0.0026196633826599063
13 0.0015596993446337008 0.002320961102903751 -0.0026512204763119726
15 0.0006017503639436032 0.0015446183077867184 -0.00020310880800785032
16 -0.0030890422769390942 -6.579173244519107e-05 0.003595925341596403
149 -0.0019283565931658593 -0.0013317886997617381 0.00116687292722395
17 -0.00014426927014137215 -0.001620379713177802 0.002097033041328002
145 -0.0013994563302188322 -0.0005866935558449494 -0.0025431075648377393
147 0.00023161699722457703 0.0004615243177577939 -0.0020150784811463875
91 0.0013130367861069684 -4.972427753207508e-05 -0.0020346118869285184
151 -0.0006590823291690424 -0.00203709375877994 0.0012213317188686692
18 0.0013282286411983317 0.00016493024779790956 -0.00047873046399816164
11 0.0006039326977616465 0.0001294843360357189 -0.0010058670633238099
146 -0.0014580022425778516 -0.00012053384686578066 0.0043165825157977095
14 -6.963506641946027e-05 -0.002252524114707816 -0.00046231317944712833
19 0.002841232942429655 0.0011517347469990771 -0.0022189526031903815
148 -0.000299043021637535 0.0023115532037694306 -0.0005226899644834096
150 0.0013850041813279644 -0.0008873364543351917 0.00022436525280016264
144 0.0004631863577557062 0.0016596354964613614 -0.0007663366814728166
153 0.00041429249850581884 -0.0006153021089856881 -0.0032000197146551754
22 -0.0003769428379729305 -0.0002568377154674746 0.0005019807070545075
86 -0.0012418143491581203 0.0010688680657523811 0.002171538087675582
82 0.0026454606865195384 -0.00071675577747409 -0.0014045760814195745
156 -0.00015695064279790927 0.003575864780080079 0.0007367220281169657
158 -0.0016906327964604708 -0.0006857252602854251 0.0011127817637081921
160 0.004191106166115328 0.0022707973898806054 -0.0003762874619855407
85 0.0014839245333510605 0.001847239966838377 -0.0005006601791498742
152 -0.000788967572439229 -0.0019939391477957875 -0.0007860581612383728
159 -0.0032570373852766144 -0.0015071299638470888 -0.0029841775419075568
155 0.0012241853728171058 0.0003657956591909584 0.003149627271562673
83 0.0005411412548034499 -0.0016173140507663652 0.0023443607079978272
154 0.0001732911958387716 0.0014277573451132344 0.002554519685180172
20 -0.001023723577180191 -0.0014341027792124199 0.0023736503205571105
157 -0.0001029074601155293 0.0012307570504154848 0.0009344193241628478
161 -0.0004717166720568893 -0.00021793619544099264 0.0017779516420031686
162 6.411210000188167e-05 -0.0006370745409155843 -0.0024203253313821002
81 0.0005986220583970615 0.0012216813732068028 0.0032372231996830756
163 0.00011533211007488455 -0.001103283298588485 -0.0024144000356667644
84 0.0011028934064479228 -0.001053845007089784 -0.0007040046476497054
21 0.003458422350850166 -0.0038514796995561015 -0.0009170475675450419
79 -0.00220578379034238 0.0017672009046487993 -0.00011200340949782387
80 0.0018539177985053793 0.003532792559133849 0.003774148649012771
87 -0.0024754382753838858 -0.00019146519800002432 0.00012762915359884632
139 0.00024073045375131135 -0.0011547714406575538 -0.003230577146454836
1 0.0005414703657749762 4.5891168377178484e-05 0.00018066623424308422
71 0.0006058071633876893 -0.0017412321818716476 -0.0010128256395985089
39 -0.000490005884424491 0.004094853443750945 0.003231932318203964
6 0.0029023048580361353 0.0035099087871215224 -0.004886372016404315
45 0.0022312158310954346 -0.0006308039597597749 0.0005665370671095592
42 -0.003086675310585229 -0.003004235332837912 0.0027049857082156975
134 0.004992292715404757 0.0009452662885935394 0.0013640669398585002
5 -0.002219370405649798 0.001416228579154744 -0.0005582897205278246
35 0.0015946928259663422 -0.0019819370962919623 0.0029358944480891063
3 0.0018320460311393213 0.002543019739812335 0.0031836129505936864
37 0.0005212917448624196 -0.0016018033946900464 -0.00027998679831447147
135 3.17916182487668e-05 -0.00033596698283696577 -0.0021966196271245957
136 -0.00012865145079880911 0.002599240240970912 -0.001996345823273181
38 -4.20967953311599e-05 5.673120015176745e-05 0.0024589682137313752
34 -0.0019396471562292612 -0.0013366785177786752 -0.0025070072998625284
41 0.0008680882205780524 -0.0001707534684887646 -0.0025307699429849904
40 -0.002336079258015771 0.00024354263622465756 0.0006594859158990641
44 -0.0007630305592188299 0.0016911327342456865 0.0010054502897268753
36 -0.0007031466294802612 -0.0010034074266745423 -0.0011845746372004043
4 -0.0002613153165539989 0.00012206247943263869 0.0010382031011320076
138 -0.002984119283468693 0.004827090012819953 -0.0014052670605174086
2 -0.0010805141491108694 -0.0015439767661258174 -0.0011275953238501198
133 0.003291210098550505 0.0025968003724803138 0.0033003798246192617
55 -0.0024645125699992486 -0.0012745766931928557 0.00011631443600948477
46 -0.0035594444281093485 -0.0009625379299664997 -0.00046708343392044675
60 -0.0010565269839107015 0.0017532313733044796 0.0004710317022120502
47 0.0009542640489656474 0.0005788811932821263 -0.0023740655178463056
56 -0.00033678942635519127 -0.002890442736881365 -0.002566530171687399
64 -0.0003562853496159668 -0.0009795362994192043 0.001226622022516823
53 -0.0008494128689869739 2.906736939772561e-05 -0.0014054259142583447
59 0.0004408903830117837 0.0007603818280254251 -0.000818527782165523
54 0.0023548734971119666 0.0015549269691114364 -0.002049228958759173
57 0.0003911226032932516 0.001291856773579359 0.0007061103163873002
61 0.002163182041001989 0.0015032726291657464 -0.003777385852880355
48 -0.0017337570575727212 -0.004985483634372329 0.0024522068832786336
50 0.00017246858028297746 -0.0012678168533383123 0.002875098137577421
52 -0.001402346678051867 0.0004614291081862008 -0.002433851001900355
63 0.003575291776005545 -0.0005238609374890994 -0.0011646942366462423
62 0.0026734126277700786 -0.0026520805484617728 0.0009439913594617084
51 0.001659294444540754 0.0018441413376866775 -0.0016768098775952476
31 0.0035769926625415682 0.0014400270516792954 0.0011326715701829204
70 -0.0017092370668642567 -0.001467948993956298 -0.002682852606255294
33 -0.003382229304875812 0.0005854356230110498 0.0007436393329053392
32 -0.004773436799171201 0.0012130844579761946 0.0024191356602261314
27 0.0006936395857635138 -4.015747147416443e-05 1.1331654605599717e-06
7 0.0012021747216058468 0.001478378059365969 -0.002418417240805607
73 -0.0011078274215273228 0.002439809299608932 0.0006169223661735161
26 0.0006330811625256802 -0.0005130086584444946 -0.00242576640792933
30 -0.002007025773389449 -0.0012424395287167433 -0.0006452624486514842
23 -0.002041419150664554 -0.0009485047709940341 -0.002755404134679737
28 -0.0015870429279907015 0.0017939057368002642 0.0009427403108734871
29 0.00040079004820337905 -0.000560731495957795 0.0037474503909269053
9 -0.0011770777910877312 0.00335075575114569 0.0010549641337343997
10 -0.002418092050463608 -0.00042063783819970053 0.0007646601535243543
8 0.0035824257815141487 -0.0008525453171476573 -0.0009441970622108511
77 -0.0014577620301093111 -0.0014241357350823938 0.0005407920412113939
78 -0.0005977058832415346 0.0013867256708758808 0.0023442651131922398
65 -5.0758866494251206e-05 -0.0011093690144482072 -0.00047546339583665075
67 0.002019105376296754 0.0011739209581935115 0.000958342542287941
66 -0.0007623301566426886 0.0004206682060435588 -0.00023188278679574112
68 -0.001521734904032692 0.0014563364370737471 0.0021679386381828905
72 0.0015240511753501123 -0.0005107017128217014 -0.0010330620505285706
76 0.0009060029651845761 -0.0007333022583215667 0.0015038649596608201
75 -0.001905093912288893 0.0030397679785796167 -0.0016993974118710898
25 0.0037175490022403053 -0.0029638702106064055 0.0007924026978570344
74 -0.00022570216418798074 0.0038741568614309415 -0.0015164347364349205
69 -0.0011473817858347504 0.0015230823952635216 0.0017242763896504532
24 0.00420097743691933 -0.0034530165086393053 -8.737196727129976e-05

Bonds

1 1 90 92
2 7 90 91
3 13 90 94
4 1 129 131
5 16 129 130
6 1 105 107
7 7 105 106
8 1 123 127
9 11 123 124
10 1 99 100
11 1 94 98
12 4 94 95
13 1 103 105
14 3 103 104
15 1 92 94
16 16 92 93
17 1 131 133
18 3 131 132
19 1 140 142
20 13 140 144
21 14 140 148
22 19 140 141
23 1 142 144
24 7 142 143
25 13 142 148
26 14 142 150
27 1 98 99
28 17 124 125
29 17 124 126
30 17 95 96
31 17 95 97
32 1 127 129
33 11 127 128
34 1 119 121
35 9 119 120
36 1 100 103
37 5 100 101
38 1 121 123
39 10 121 122
40 6 101 102
41 17 125 126
42 17 96 97
43 1 107 109
44 3 107 108
45 1 109 111
46 10 109 110
47 12 113 114
48 1 115 117
49 19 115 116
50 1 117 119
51 7 117 118
52 1 112 115
53 5 112 113
54 1 111 112
55 12 88 89
56 1 13 16
57 5 13 14
58 1 16 18
59 19 16 17
60 17 145 146
61 17 145 147
62 1 18 20
63 7 18 19
64 1 11 13
65 13 11 16
66 18 11 12
67 17 146 147
68 6 14 15
69 1 148 150
70 7 148 149
71 13 148 152
72 1 150 152
73 18 150 151
74 1 144 148
75 10 144 145
76 13 144 150
77 14 144 152
78 1 22 23
79 12 160 161
80 1 85 87
81 3 85 86
82 13 85 90
83 14 85 92
84 1 152 154
85 7 152 153
86 1 159 162
87 5 159 160
88 12 155 156
89 1 83 85
90 3 83 84
91 1 154 157
92 5 154 155
93 1 20 22
94 19 20 21
95 1 157 159
96 7 157 158
97 1 162 163
98 1 81 83
99 10 81 82
100 1 79 81
101 8 79 80
102 1 87 90
103 5 87 88
104 13 87 92
105 14 87 94
106 1 1 3
107 2 1 2
108 1 42 44
109 9 42 43
110 6 134 135
111 1 5 7
112 13 5 11
113 14 5 13
114 16 5 6
115 1 3 5
116 3 3 4
117 13 3 7
118 14 3 11
119 1 136 138
120 3 136 137
121 1 38 40
122 3 38 39
123 1 34 36
124 3 34 35
125 1 40 42
126 8 40 41
127 1 44 46
128 10 44 45
129 1 36 38
130 18 36 37
131 1 138 140
132 9 138 139
133 1 133 136
134 5 133 134
135 15 46 48
136 19 46 47
137 5 60 61
138 16 60 63
139 5 56 57
140 16 56 59
141 16 59 60
142 16 54 56
143 18 54 55
144 6 57 58
145 6 61 62
146 16 48 50
147 16 48 49
148 3 50 51
149 16 50 52
150 11 52 53
151 16 52 54
152 16 63 65
153 16 63 64
154 6 70 71
155 1 32 34
156 7 32 33
157 1 7 11
158 4 7 8
159 13 7 13
160 14 7 16
161 1 26 28
162 13 26 30
163 14 26 32
164 19 26 27
165 1 30 32
166 13 30 34
167 19 30 31
168 1 23 26
169 5 23 24
170 1 28 30
171 13 28 32
172 14 28 34
173 16 28 29
174 17 9 10
175 17 8 9
176 17 8 10
177 1 77 79
178 8 77 78
179 3 65 66
180 16 65 67
181 10 67 68
182 16 67 69
183 3 72 73
184 15 72 74
185 1 75 77
186 16 75 76
187 1 74 75
188 5 69 70
189 16 69 72
190 6 24 25

Angles

1 2 87 90 92
2 5 87 90 91
3 3 127 129 131
4 5 127 129 130
5 1 103 105 107
6 5 103 105 106
7 3 121 123 127
8 5 121 123 124
9 3 98 99 100
10 3 92 94 98
11 5 92 94 95
12 1 100 103 105
13 5 100 103 104
14 2 90 92 94
15 5 90 92 93
16 3 129 131 133
17 5 129 131 132
18 1 138 140 142
19 5 138 140 141
20 2 140 142 144
21 5 140 142 143
22 3 94 98 99
23 6 123 124 125
24 6 123 124 126
25 6 94 95 96
26 6 94 95 97
27 3 123 127 129
28 5 123 127 128
29 3 117 119 121
30 5 117 119 120
31 3 99 100 103
32 5 99 100 101
33 1 119 121 123
34 5 119 121 122
35 7 100 101 102
36 3 105 107 109
37 5 105 107 108
38 3 107 109 111
39 5 107 109 110
40 7 112 113 114
41 3 112 115 117
42 5 112 115 116
43 3 115 117 119
44 5 115 117 118
45 3 111 112 115
46 5 111 112 113
47 3 109 111 112
48 7 87 88 89
49 2 11 13 16
50 5 11 13 14
51 3 13 16 18
52 5 13 16 17
53 6 144 145 146
54 6 144 145 147