Created on Fri Oct 07 23:52:48 2022 

         832 atoms
        1092 bonds
        2156 angles
      160 dihedrals
       32 impropers

           18 atom types
           18 bond types
           29 angle types
           40 dihedral types
           8 improper types
           -12.46485  12.46485 xlo xhi
           -12.46485  12.46485 ylo yhi
           -13.1118  13.1118 zlo zhi
           0.000000   0.000000   0.000000 xy xz yz

Masses

    1    15.999400000 # O_2
    2    28.085500000 # Si3
       3      1.008  
       4     12.011  
       5     12.011  
       6     12.011  
       7      1.008  
       8     14.007  
       9      1.008  
       10     12.011  
       11     12.011  
      12      1.008  
      13     12.011  
      14      1.008  
      15     12.011  
      16      1.008  
      17     12.011  
      18      1.008  

Bond Coeffs

    1      285.0        1.68  # O_2 Si3
       2   367.0000     1.0800 
       3   469.0000     1.4240 
       4   546.0000     1.3670 
       5   367.0000     1.0800 
       6   427.0000     1.3810 
       7   434.0000     1.0100 
       8   469.0000     1.4240 
       9   469.0000     1.4000 
    10   367.0000     1.0800 
      11   469.0000     1.4040 
      12   367.0000     1.0800 
      13   469.0000     1.4000 
      14   367.0000     1.0800 
      15   469.0000     1.4000 
      16   367.0000     1.0800 
      17   436.0000     1.3740 
      18   469.0000     1.4000 

Angle Coeffs

    1              100.0        149.0    # Si3 O_2 Si3
    2              100.0        109.5    # O_2 Si3 O_2
3 35 127.5 
4 35 125.7 
5 35 132.1 
6 70 107.7 
7 35 120 
8 70 107.3 
9 63 120 
10 35 120 
11 85 134.9 
12 35 120 
13 63 120 
14 35 120 
15 63 120 
16 35 120 
17 35 121.6 
18 35 120 
19 35 120 
20 70 107.7 
21 35 120 
22 63 120 
23 70 107.3 
24 63 120 
25 30 125.8 
26 63 120 
27 70 109.8 
28 70 108.7 
29 35 120 


Dihedral Coeffs

       1      0.000      7.250      0.000      0.000 
       2      0.000      5.000      0.000      0.000 
       3      0.000      7.250      0.000      0.000 
       4      0.000      7.250      0.000      0.000 
       5      0.000      7.250      0.000      0.000 
       6      0.000      7.250      0.000      0.000 
       7      0.000      2.170      0.000      0.000 
       8      0.000      2.170      0.000      0.000 
       9      0.000      7.000      0.000      0.000 
      10      0.000      7.250      0.000      0.000 
      11      0.000      7.250      0.000      0.000 
      12      0.000      7.250      0.000      0.000 
      13      0.000      7.250      0.000      0.000 
      14      0.000      7.250      0.000      0.000 
      15      0.000      7.250      0.000      0.000 
      16      0.000      7.250      0.000      0.000 
      17      0.000      5.000      0.000      0.000 
      18      0.000      7.250      0.000      0.000 
      19      0.000      2.170      0.000      0.000 
      20      0.000      7.000      0.000      0.000 
      21      0.000      7.250      0.000      0.000 
      22      0.000      7.250      0.000      0.000 
      23      0.000      7.250      0.000      0.000 
      24      0.000      7.250      0.000      0.000 
      25      0.000      7.250      0.000      0.000 
      26      0.000      7.250      0.000      0.000 
      27      0.000      7.250      0.000      0.000 
      28      0.000      7.250      0.000      0.000 
      29      0.000      7.250      0.000      0.000 
      30      0.000      7.250      0.000      0.000 
      31      0.000      7.250      0.000      0.000 
      32      0.000      2.170      0.000      0.000 
      33      0.000      7.250      0.000      0.000 
      34      0.000      5.000      0.000      0.000 
      35      0.000      5.000      0.000      0.000 
      36      0.000      5.000      0.000      0.000 
      37      0.000      7.250      0.000      0.000 
      38      0.000      7.250      0.000      0.000 
      39      0.000      5.000      0.000      0.000 
      40      0.000      2.170      0.000      0.000 
      
Improper Coeffs 

       1      2.500      -1       2 
       2      2.500      -1       2 
       3      2.500      -1       2 
       4      2.500      -1       2 
       5      2.500      -1       2 
       6      2.500      -1       2 
       7      2.500      -1       2 
       8      2.500      -1       2 

Pair Coeffs

    1        0.054000        3.47 # O_2 O_2
    2        0.093        4.15 # Si3 Si3
       3      0.030  2.4200000 
       4      0.070  3.5500000 
       5      0.070  3.5500000 
       6      0.070  3.5500000 
       7      0.030  2.4200000 
       8      0.170  3.2500000 
       9      0.000  0.0000000 
       10      0.080  3.5000000 
       11      0.070  3.5500000 
      12      0.030  2.4200000 
      13      0.070  3.5500000 
      14      0.030  2.4200000 
      15      0.070  3.5500000 
      16      0.030  2.4200000 
      17      0.070  3.5500000 
      18      0.030  2.4200000 

Atoms

       1      444        1     0.00000   10.38447   10.45676    1.55768
       2      444        1     0.00000    0.27074   10.75816    2.56205
       3      444        1     0.00000   12.14326    8.46089    1.50812
       4      444        1     0.00000   10.39244    6.45679    1.56607
       5      444        1     0.00000    0.28171    6.17234    2.56598
       6      444        1     0.00000    8.01615   10.81924    2.55680
       7      444        1     0.00000    8.68501    8.45192    1.76878
       8      444        1     0.00000    8.27167   10.31940   -0.00551
       9      444        1     0.00000    8.02836    6.10279    2.58460
      10      444        1     0.00000    8.27541    6.55128    0.00944
      11      444        1     0.00000    5.46858   10.62304    2.08110
      12      444        1     0.00000    4.06828    8.42250    1.76957
      13      444        1     0.00000    2.83376   10.68562    2.09291
      14      444        1     0.00000    5.48129    6.22569    2.06721
      15      444        1     0.00000    2.84847    6.15016    2.09500
      16      444        2     0.00000   11.92014   10.04069    1.38697
      17      444        2     0.00000   11.92587    6.88110    1.38985
      18      444        2     0.00000    8.85054   10.00927    1.45515
      19      444        2     0.00000    8.85528    6.89431    1.46485
      20      444        2     0.00000    4.13534   10.00105    1.47586
      21      444        2     0.00000    4.14132    6.84644    1.46695
      22      444        2     0.00000    6.55925   10.84941    3.23049
      23      444        1     0.00000    2.04099    2.27359   14.66948
      24      444        1     0.00000   12.15473    1.97219   15.67385
      25      444        1     0.00000    0.28220    4.26946   14.61992
      26      444        1     0.00000    2.03277    6.27331   14.67787
      27      444        1     0.00000   12.14351    6.55801   15.67778
      28      444        1     0.00000    4.40932    1.91111   15.66860
      29      444        1     0.00000    3.74020    4.27844   14.88058
      30      444        1     0.00000    4.15354    2.41095   13.10629
      31      444        1     0.00000    4.39710    6.62731   15.69640
      32      444        1     0.00000    4.14980    6.17908   13.12124
      33      444        1     0.00000    6.95663    2.10706   15.19290
      34      444        1     0.00000    8.35718    4.30785   14.88137
      35      444        1     0.00000    9.59145    2.04448   15.20471
      36      444        1     0.00000    6.94392    6.50466   15.17901
      37      444        1     0.00000    9.57699    6.57995   15.20680
      38      444        2     0.00000    0.50508    2.68942   14.49877
      39      444        2     0.00000    0.49959    5.84901   14.50165
      40      444        2     0.00000    3.57492    2.72108   14.56695
      41      444        2     0.00000    3.57018    5.83604   14.57665
      42      444        2     0.00000    8.28987    2.72930   14.58766
      43      444        2     0.00000    8.28414    5.88391   14.57875
      44      444        2     0.00000    5.86621    1.88095   16.34229
      45      444        1     0.00000    2.12102   10.53704    8.11358
      46      444        1     0.00000    1.81987    0.42331    9.11795
      47      444        1     0.00000    4.11689   12.29558    8.06402
      48      444        1     0.00000    6.12099   10.54501    8.12197
      49      444        1     0.00000    6.40569    0.43428    9.12188
      50      444        1     0.00000    1.75854    8.16872    9.11270
      51      444        1     0.00000    4.12587    8.83758    8.32468
      52      444        1     0.00000    2.25863    8.42424    6.55039
      53      444        1     0.00000    6.47499    8.18068    9.14050
      54      444        1     0.00000    6.02651    8.42798    6.56534
      55      444        1     0.00000    1.95474    5.62115    8.63700
      56      444        1     0.00000    4.15528    4.22060    8.32547
      57      444        1     0.00000    1.89216    2.98633    8.64881
      58      444        1     0.00000    6.35209    5.63386    8.62311
      59      444        1     0.00000    6.42762    3.00104    8.65090
      60      444        2     0.00000    2.53710   12.07271    7.94287
      61      444        2     0.00000    5.69669   12.07819    7.94575
      62      444        2     0.00000    2.56851    9.00311    8.01105
      63      444        2     0.00000    5.68372    9.00785    8.02075
      64      444        2     0.00000    2.57673    4.28791    8.03176
      65      444        2     0.00000    5.73134    4.29389    8.02285
      66      444        2     0.00000    1.72838    6.71157    9.78639
      67      444        1     0.00000   10.30419    2.19332   21.22538
      68      444        1     0.00000   10.60559   12.30705   22.22975
      69      444        1     0.00000    8.30832    0.43477   21.17582
      70      444        1     0.00000    6.30447    2.18534   21.23377
      71      444        1     0.00000    6.01977   12.29608   22.23368
      72      444        1     0.00000   10.66692    4.56164   22.22450
      73      444        1     0.00000    8.29960    3.89277   21.43648
      74      444        1     0.00000   10.16683    4.30611   19.66219
      75      444        1     0.00000    5.95047    4.54942   22.25230
      76      444        1     0.00000    6.39871    4.30237   19.67714
      77      444        1     0.00000   10.47072    7.10920   21.74880
      78      444        1     0.00000    8.27018    8.50975   21.43727
      79      444        1     0.00000   10.53330    9.74402   21.76061
      80      444        1     0.00000    6.07337    7.09649   21.73491
      81      444        1     0.00000    5.99784    9.72931   21.76270
      82      444        2     0.00000    9.88837    0.65765   21.05467
      83      444        2     0.00000    6.72878    0.65216   21.05755
      84      444        2     0.00000    9.85695    3.72724   21.12285
      85      444        2     0.00000    6.74174    3.72250   21.13255
      86      444        2     0.00000    9.84873    8.44244   21.14356
      87      444        2     0.00000    6.69412    8.43646   21.13465
      88      444        2     0.00000   10.69709    6.01853   22.89819
      89      444        1     0.00000    2.04099   10.45676   24.57204
      90      444        1     0.00000   12.15473   10.75816   23.56767
      91      444        1     0.00000    0.28220    8.46089   24.62160
      92      444        1     0.00000    2.03277    6.45679   24.56365
      93      444        1     0.00000   12.14351    6.17234   23.56374
      94      444        1     0.00000    4.40932   10.81924   23.57292
      95      444        1     0.00000    3.74020    8.45192   24.36120
      96      444        1     0.00000    4.15354   10.31940   26.13523
      97      444        1     0.00000    4.39710    6.10279   23.54512
      98      444        1     0.00000    4.14980    6.55128   26.12028
      99      444        1     0.00000    6.95663   10.62304   24.04888
     100      444        1     0.00000    8.35718    8.42250   24.36041
     101      444        1     0.00000    9.59145   10.68562   24.03681
     102      444        1     0.00000    6.94392    6.22569   24.06251
     103      444        1     0.00000    9.57699    6.15016   24.03472
     104      444        2     0.00000    0.50508   10.04069   24.74302
     105      444        2     0.00000    0.49959    6.88110   24.73987
     106      444        2     0.00000    3.57492   10.00927   24.67457
     107      444        2     0.00000    3.57018    6.89431   24.66487
     108      444        2     0.00000    8.28987   10.00105   24.65386
     109      444        2     0.00000    8.28414    6.84644   24.66277
     110      444        2     0.00000    5.86621   10.84941   22.89923
     111      444        1     0.00000   10.38447    2.27359   11.46024
     112      444        1     0.00000    0.27074    1.97219   10.45587
     113      444        1     0.00000   12.14326    4.26946   11.50980
     114      444        1     0.00000   10.39244    6.27331   11.45185
     115      444        1     0.00000    0.28171    6.55801   10.45194
     116      444        1     0.00000    8.01615    1.91111   10.46112
     117      444        1     0.00000    8.68501    4.27844   11.24940
     118      444        1     0.00000    8.27167    2.41095   13.02343
     119      444        1     0.00000    8.02836    6.62731   10.43332
     120      444        1     0.00000    8.27541    6.17908   13.00848
     121      444        1     0.00000    5.46858    2.10706   10.93708
     122      444        1     0.00000    4.06828    4.30785   11.24861
     123      444        1     0.00000    2.83376    2.04448   10.92501
     124      444        1     0.00000    5.48129    6.50466   10.95071
     125      444        1     0.00000    2.84847    6.57995   10.92292
     126      444        2     0.00000   11.92014    2.68942   11.63122
     127      444        2     0.00000   11.92587    5.84901   11.62807
     128      444        2     0.00000    8.85054    2.72108   11.56277
     129      444        2     0.00000    8.85528    5.83604   11.55307
     130      444        2     0.00000    4.13534    2.72930   11.54206
     131      444        2     0.00000    4.14132    5.88391   11.55097
     132      444        2     0.00000    6.55925    1.88095    9.78743
     133      444        1     0.00000   10.30419   10.53704   18.01614
     134      444        1     0.00000   10.60559    0.42331   17.01177
     135      444        1     0.00000    8.30832   12.29558   18.06570
     136      444        1     0.00000    6.30447   10.54501   18.00775
     137      444        1     0.00000    6.01977    0.43428   17.00784
     138      444        1     0.00000   10.66692    8.16872   17.01702
     139      444        1     0.00000    8.29960    8.83758   17.80530
     140      444        1     0.00000   10.16683    8.42424   19.57933
     141      444        1     0.00000    5.95047    8.18068   16.98922
     142      444        1     0.00000    6.39871    8.42798   19.56438
     143      444        1     0.00000   10.47072    5.62115   17.49298
     144      444        1     0.00000    8.27018    4.22060   17.80451
     145      444        1     0.00000   10.53330    2.98633   17.48091
     146      444        1     0.00000    6.07337    5.63386   17.50661
     147      444        1     0.00000    5.99784    3.00104   17.47882
     148      444        2     0.00000    9.88837   12.07271   18.18712
     149      444        2     0.00000    6.72878   12.07819   18.18397
     150      444        2     0.00000    9.85695    9.00311   18.11867
     151      444        2     0.00000    6.74174    9.00785   18.10897
     152      444        2     0.00000    9.84873    4.28791   18.09796
     153      444        2     0.00000    6.69412    4.29389   18.10687
     154      444        2     0.00000   10.69709    6.71157   16.34333
     155      444        1     0.00000    2.12102    2.19332    4.90434
     156      444        1     0.00000    1.81987   12.30705    3.89997
     157      444        1     0.00000    4.11689    0.43477    4.95390
     158      444        1     0.00000    6.12099    2.18534    4.89595
     159      444        1     0.00000    6.40569   12.29608    3.89604
     160      444        1     0.00000    1.75854    4.56164    3.90522
     161      444        1     0.00000    4.12587    3.89277    4.69350
     162      444        1     0.00000    2.25863    4.30611    6.46753
     163      444        1     0.00000    6.47499    4.54942    3.87742
     164      444        1     0.00000    6.02651    4.30237    6.45258
     165      444        1     0.00000    1.95474    7.10920    4.38118
     166      444        1     0.00000    4.15528    8.50975    4.69271
     167      444        1     0.00000    1.89216    9.74402    4.36911
     168      444        1     0.00000    6.35209    7.09649    4.39481
     169      444        1     0.00000    6.42762    9.72931    4.36702
     170      444        2     0.00000    2.53710    0.65765    5.07532
     171      444        2     0.00000    5.69669    0.65216    5.07217
     172      444        2     0.00000    2.56851    3.72724    5.00687
     173      444        2     0.00000    5.68372    3.72250    4.99717
     174      444        2     0.00000    2.57673    8.44244    4.98616
     175      444        2     0.00000    5.73134    8.43646    4.99507
     176      444        2     0.00000    1.72838    6.01853    3.23153
     177      444        1     0.00000   -0.01969   10.54103   -0.04694
     178      444        1     0.00000   -0.01969    6.38076   -0.04694
     179      444        1     0.00000   -0.01969    2.18908   13.06486
     180      444        1     0.00000   -0.01969    6.34959   13.06486
     181      444        1     0.00000    2.03676    0.13263    6.50896
     182      444        1     0.00000    6.19703    0.13263    6.50896
     183      444        1     0.00000   10.38871    0.13263   19.62076
     184      444        1     0.00000    6.22819    0.13263   19.62076
     185      444        2     0.00000    6.56349    6.01429    3.23101
     186      444        2     0.00000    1.72264   10.85514    3.23101
     187      444        2     0.00000    5.86172    6.71606   16.34281
     188      444        2     0.00000   10.70257    1.87521   16.34281
     189      444        2     0.00000    6.56349    6.71606    9.78691
     190      444        2     0.00000    1.72264    1.87521    9.78691
     191      444        2     0.00000    5.86172    6.01429   22.89871
     192      444        2     0.00000   10.70257   10.85514   22.89871
     193      444        1     0.00000   22.84932   10.45676    1.55768
     194      444        1     0.00000   12.73559   10.75816    2.56205
     195      444        1     0.00000   24.60811    8.46089    1.50812
     196      444        1     0.00000   22.85729    6.45679    1.56607
     197      444        1     0.00000   12.74656    6.17234    2.56598
     198      444        1     0.00000   20.48100   10.81924    2.55680
     199      444        1     0.00000   21.14986    8.45192    1.76878
     200      444        1     0.00000   20.73653   10.31940   -0.00551
     201      444        1     0.00000   20.49321    6.10279    2.58460
     202      444        1     0.00000   20.74026    6.55128    0.00944
     203      444        1     0.00000   17.93343   10.62304    2.08110
     204      444        1     0.00000   16.53313    8.42250    1.76957
     205      444        1     0.00000   15.29861   10.68562    2.09291
     206      444        1     0.00000   17.94614    6.22569    2.06721
     207      444        1     0.00000   15.31332    6.15016    2.09500
     208      444        2     0.00000   24.38499   10.04069    1.38697
     209      444        2     0.00000   24.39072    6.88110    1.38985
     210      444        2     0.00000   21.31539   10.00927    1.45515
     211      444        2     0.00000   21.32013    6.89431    1.46485
     212      444        2     0.00000   16.60019   10.00105    1.47586
     213      444        2     0.00000   16.60617    6.84644    1.46695
     214      444        2     0.00000   19.02410   10.84941    3.23049
     215      444        1     0.00000   14.50585    2.27359   14.66948
     216      444        1     0.00000   24.61958    1.97219   15.67385
     217      444        1     0.00000   12.74705    4.26946   14.61992
     218      444        1     0.00000   14.49762    6.27331   14.67787
     219      444        1     0.00000   24.60836    6.55801   15.67778
     220      444        1     0.00000   16.87417    1.91111   15.66860
     221      444        1     0.00000   16.20505    4.27844   14.88058
     222      444        1     0.00000   16.61839    2.41095   13.10629
     223      444        1     0.00000   16.86195    6.62731   15.69640
     224      444        1     0.00000   16.61465    6.17908   13.12124
     225      444        1     0.00000   19.42148    2.10706   15.19290
     226      444        1     0.00000   20.82203    4.30785   14.88137
     227      444        1     0.00000   22.05630    2.04448   15.20471
     228      444        1     0.00000   19.40877    6.50466   15.17901
     229      444        1     0.00000   22.04184    6.57995   15.20680
     230      444        2     0.00000   12.96993    2.68942   14.49877
     231      444        2     0.00000   12.96444    5.84901   14.50165
     232      444        2     0.00000   16.03977    2.72108   14.56695
     233      444        2     0.00000   16.03503    5.83604   14.57665
     234      444        2     0.00000   20.75472    2.72930   14.58766
     235      444        2     0.00000   20.74899    5.88391   14.57875
     236      444        2     0.00000   18.33106    1.88095   16.34229
     237      444        1     0.00000   14.58587   10.53704    8.11358
     238      444        1     0.00000   14.28472    0.42331    9.11795
     239      444        1     0.00000   16.58174   12.29558    8.06402
     240      444        1     0.00000   18.58584   10.54501    8.12197
     241      444        1     0.00000   18.87054    0.43428    9.12188
     242      444        1     0.00000   14.22339    8.16872    9.11270
     243      444        1     0.00000   16.59072    8.83758    8.32468
     244      444        1     0.00000   14.72348    8.42424    6.55039
     245      444        1     0.00000   18.93984    8.18068    9.14050
     246      444        1     0.00000   18.49136    8.42798    6.56534
     247      444        1     0.00000   14.41959    5.62115    8.63700
     248      444        1     0.00000   16.62013    4.22060    8.32547
     249      444        1     0.00000   14.35701    2.98633    8.64881
     250      444        1     0.00000   18.81694    5.63386    8.62311
     251      444        1     0.00000   18.89248    3.00104    8.65090
     252      444        2     0.00000   15.00195   12.07271    7.94287
     253      444        2     0.00000   18.16154   12.07819    7.94575
     254      444        2     0.00000   15.03336    9.00311    8.01105
     255      444        2     0.00000   18.14857    9.00785    8.02075
     256      444        2     0.00000   15.04158    4.28791    8.03176
     257      444        2     0.00000   18.19619    4.29389    8.02285
     258      444        2     0.00000   14.19323    6.71157    9.78639
     259      444        1     0.00000   22.76904    2.19332   21.22538
     260      444        1     0.00000   23.07044   12.30705   22.22975
     261      444        1     0.00000   20.77317    0.43477   21.17582
     262      444        1     0.00000   18.76932    2.18534   21.23377
     263      444        1     0.00000   18.48463   12.29608   22.23368
     264      444        1     0.00000   23.13177    4.56164   22.22450
     265      444        1     0.00000   20.76445    3.89277   21.43648
     266      444        1     0.00000   22.63168    4.30611   19.66219
     267      444        1     0.00000   18.41532    4.54942   22.25230
     268      444        1     0.00000   18.86356    4.30237   19.67714
     269      444        1     0.00000   22.93557    7.10920   21.74880
     270      444        1     0.00000   20.73503    8.50975   21.43727
     271      444        1     0.00000   22.99815    9.74402   21.76061
     272      444        1     0.00000   18.53822    7.09649   21.73491
     273      444        1     0.00000   18.46269    9.72931   21.76270
     274      444        2     0.00000   22.35322    0.65765   21.05467
     275      444        2     0.00000   19.19363    0.65216   21.05755
     276      444        2     0.00000   22.32180    3.72724   21.12285
     277      444        2     0.00000   19.20659    3.72250   21.13255
     278      444        2     0.00000   22.31358    8.44244   21.14356
     279      444        2     0.00000   19.15897    8.43646   21.13465
     280      444        2     0.00000   23.16194    6.01853   22.89819
     281      444        1     0.00000   14.50585   10.45676   24.57204
     282      444        1     0.00000   24.61958   10.75816   23.56767
     283      444        1     0.00000   12.74705    8.46089   24.62160
     284      444        1     0.00000   14.49762    6.45679   24.56365
     285      444        1     0.00000   24.60836    6.17234   23.56374
     286      444        1     0.00000   16.87417   10.81924   23.57292
     287      444        1     0.00000   16.20505    8.45192   24.36120
     288      444        1     0.00000   16.61839   10.31940   26.13523
     289      444        1     0.00000   16.86195    6.10279   23.54512
     290      444        1     0.00000   16.61465    6.55128   26.12028
     291      444        1     0.00000   19.42148   10.62304   24.04888
     292      444        1     0.00000   20.82203    8.42250   24.36041
     293      444        1     0.00000   22.05630   10.68562   24.03681
     294      444        1     0.00000   19.40877    6.22569   24.06251
     295      444        1     0.00000   22.04184    6.15016   24.03472
     296      444        2     0.00000   12.96993   10.04069   24.74302
     297      444        2     0.00000   12.96444    6.88110   24.73987
     298      444        2     0.00000   16.03977   10.00927   24.67457
     299      444        2     0.00000   16.03503    6.89431   24.66487
     300      444        2     0.00000   20.75472   10.00105   24.65386
     301      444        2     0.00000   20.74899    6.84644   24.66277
     302      444        2     0.00000   18.33106   10.84941   22.89923
     303      444        1     0.00000   22.84932    2.27359   11.46024
     304      444        1     0.00000   12.73559    1.97219   10.45587
     305      444        1     0.00000   24.60811    4.26946   11.50980
     306      444        1     0.00000   22.85729    6.27331   11.45185
     307      444        1     0.00000   12.74656    6.55801   10.45194
     308      444        1     0.00000   20.48100    1.91111   10.46112
     309      444        1     0.00000   21.14986    4.27844   11.24940
     310      444        1     0.00000   20.73653    2.41095   13.02343
     311      444        1     0.00000   20.49321    6.62731   10.43332
     312      444        1     0.00000   20.74026    6.17908   13.00848
     313      444        1     0.00000   17.93343    2.10706   10.93708
     314      444        1     0.00000   16.53313    4.30785   11.24861
     315      444        1     0.00000   15.29861    2.04448   10.92501
     316      444        1     0.00000   17.94614    6.50466   10.95071
     317      444        1     0.00000   15.31332    6.57995   10.92292
     318      444        2     0.00000   24.38499    2.68942   11.63122
     319      444        2     0.00000   24.39072    5.84901   11.62807
     320      444        2     0.00000   21.31539    2.72108   11.56277
     321      444        2     0.00000   21.32013    5.83604   11.55307
     322      444        2     0.00000   16.60019    2.72930   11.54206
     323      444        2     0.00000   16.60617    5.88391   11.55097
     324      444        2     0.00000   19.02410    1.88095    9.78743
     325      444        1     0.00000   22.76904   10.53704   18.01614
     326      444        1     0.00000   23.07044    0.42331   17.01177
     327      444        1     0.00000   20.77317   12.29558   18.06570
     328      444        1     0.00000   18.76932   10.54501   18.00775
     329      444        1     0.00000   18.48463    0.43428   17.00784
     330      444        1     0.00000   23.13177    8.16872   17.01702
     331      444        1     0.00000   20.76445    8.83758   17.80530
     332      444        1     0.00000   22.63168    8.42424   19.57933
     333      444        1     0.00000   18.41532    8.18068   16.98922
     334      444        1     0.00000   18.86356    8.42798   19.56438
     335      444        1     0.00000   22.93557    5.62115   17.49298
     336      444        1     0.00000   20.73503    4.22060   17.80451
     337      444        1     0.00000   22.99815    2.98633   17.48091
     338      444        1     0.00000   18.53822    5.63386   17.50661
     339      444        1     0.00000   18.46269    3.00104   17.47882
     340      444        2     0.00000   22.35322   12.07271   18.18712
     341      444        2     0.00000   19.19363   12.07819   18.18397
     342      444        2     0.00000   22.32180    9.00311   18.11867
     343      444        2     0.00000   19.20659    9.00785   18.10897
     344      444        2     0.00000   22.31358    4.28791   18.09796
     345      444        2     0.00000   19.15897    4.29389   18.10687
     346      444        2     0.00000   23.16194    6.71157   16.34333
     347      444        1     0.00000   14.58587    2.19332    4.90434