LAMMPS data file via write_data, version 17 Apr 2024, timestep = 300000, units = real

2634 atoms
17 atom types
190 bonds
19 bond types
161 angles
7 angle types
9 dihedrals
1 dihedral types
4 impropers
1 improper types

0.39504678589315745 68.36095321410534 xlo xhi
0.39504678589315745 68.36095321410534 ylo yhi
0.39504678589315745 68.36095321410534 zlo zhi

Masses

1 72
2 72
3 72
4 72
5 72
6 45
7 72
8 72
9 72
10 72
11 72
12 72
13 72
14 72
15 45
16 45
17 72

PairIJ Coeffs # lj/cut/coul/cut

1 1 1.195 4.7 22
1 2 0.740879 4.7 22
1 3 1.195 4.7 22
1 4 1.33838 4.7 22
1 5 0.478004 4.7 22
1 6 0.740879 4.7 22
1 7 0.478004 4.7 22
1 8 0.549674 4.7 22
1 9 1.195 4.7 22
1 10 1.33838 4.7 22
1 11 1.33838 4.7 22
1 12 0.836521 4.7 22
1 13 0.955973 4.7 22
1 14 1.195 4.7 22
1 15 0.645349 4.7 22
1 16 1.195 4.7 22
1 17 1.33838 4.7 22
2 2 0.836521 4.7 22
2 3 0.836521 4.7 22
2 4 0.740879 4.7 22
2 5 0.740879 4.7 22
2 6 0.836521 4.7 22
2 7 0.740879 4.7 22
2 8 0.836521 4.7 22
2 9 0.836521 4.7 22
2 10 0.740879 4.7 22
2 11 0.740879 4.7 22
2 12 0.836521 4.7 22
2 13 0.836521 4.7 22
2 14 0.836521 4.7 22
2 15 0.836521 4.7 22
2 16 0.836521 4.7 22
2 17 0.740879 4.7 22
3 3 1.07549 4.7 22
3 4 0.955973 4.7 22
3 5 0.645349 4.7 22
3 6 0.836521 4.7 22
3 7 0.645349 4.7 22
3 8 0.645349 4.7 22
3 9 1.07549 4.7 22
3 10 1.195 4.7 22
3 11 1.195 4.7 22
3 12 0.836521 4.7 22
3 13 1.07549 4.7 22
3 14 1.07549 4.7 22
3 15 0.740879 4.7 22
3 16 1.07549 4.7 22
3 17 0.955973 4.7 22
4 4 1.195 4.7 22
4 5 0.478004 4.7 22
4 6 0.740879 4.7 22
4 7 0.549674 4.7 22
4 8 0.645349 4.7 22
4 9 1.07549 4.7 22
4 10 1.33838 4.7 22
4 11 1.33838 4.7 22
4 12 0.836521 4.7 22
4 13 0.955973 4.7 22
4 14 0.955973 4.7 22
4 15 0.645349 4.7 22
4 16 1.07549 4.7 22
4 17 1.33843 5.7 22
5 5 0.836521 4.7 22
5 6 0.740879 4.7 22
5 7 0.836521 4.7 22
5 8 0.836521 4.7 22
5 9 0.645349 4.7 22
5 10 0.478004 4.7 22
5 11 0.478004 4.7 22
5 12 0.645349 4.7 22
5 13 0.645349 4.7 22
5 14 0.645349 4.7 22
5 15 0.740879 4.7 22
5 16 0.645349 4.7 22
5 17 0.478004 4.7 22
6 6 0.627412 4.3 22
6 7 0.740879 4.7 22
6 8 0.836521 4.7 22
6 9 0.836521 4.7 22
6 10 0.740879 4.7 22
6 11 0.740879 4.7 22
6 12 0.836521 4.7 22
6 13 0.836521 4.7 22
6 14 0.836521 4.7 22
6 15 0.627412 4.3 22
6 16 0.627412 4.3 22
6 17 0.740879 4.7 22
7 7 0.836521 4.7 22
7 8 0.836521 4.7 22
7 9 0.740879 4.7 22
7 10 0.549674 4.7 22
7 11 0.478004 4.7 22
7 12 0.740879 4.7 22
7 13 0.645349 4.7 22
7 14 0.645349 4.7 22
7 15 0.740879 4.7 22
7 16 0.740879 4.7 22
7 17 0.549674 4.7 22
8 8 0.836521 4.7 22
8 9 0.836521 4.7 22
8 10 0.645349 4.7 22
8 11 0.549674 4.7 22
8 12 0.836521 4.7 22
8 13 0.645349 4.7 22
8 14 0.645349 4.7 22
8 15 0.836521 4.7 22
8 16 0.836521 4.7 22
8 17 0.645349 4.7 22
9 9 1.07549 4.7 22
9 10 1.33838 4.7 22
9 11 1.195 4.7 22
9 12 0.955973 4.7 22
9 13 1.07549 4.7 22
9 14 1.07549 4.7 22
9 15 0.836521 4.7 22
9 16 1.07549 4.7 22
9 17 1.07549 4.7 22
10 10 1.33838 4.7 22
10 11 1.33838 4.7 22
10 12 0.836521 4.7 22
10 13 1.195 4.7 22
10 14 1.195 4.7 22
10 15 0.645349 4.7 22
10 16 1.33838 4.7 22
10 17 1.33838 4.7 22
11 11 1.195 4.7 22
11 12 0.836521 4.7 22
11 13 1.195 4.7 22
11 14 0.955973 4.7 22
11 15 0.645349 4.7 22
11 16 1.195 4.7 22
11 17 1.33838 4.7 22
12 12 0.836521 4.7 22
12 13 0.836521 4.7 22
12 14 0.836521 4.7 22
12 15 0.836521 4.7 22
12 16 0.955973 4.7 22
12 17 0.836521 4.7 22
13 13 0.955973 4.7 22
13 14 1.07549 4.7 22
13 15 0.740879 4.7 22
13 16 1.07549 4.7 22
13 17 0.955973 4.7 22
14 14 0.955973 4.7 22
14 15 0.740879 4.7 22
14 16 1.07549 4.7 22
14 17 0.955973 4.7 22
15 15 0.627412 4.3 22
15 16 0.627412 4.3 22
15 17 0.645349 4.7 22
16 16 0.806629 4.3 22
16 17 1.07549 4.7 22
17 17 1.195 4.7 22

Bond Coeffs # harmonic

1 1.49379 3.5
2 2.98757 4
3 5.97514 4
4 8.96271 3.1
5 5.97514 3.3
6 5.97514 2.8
7 8.96271 3.3
8 8.96271 3
9 8.96271 2.5
10 8.96271 3.2
11 5.97514 3.2
12 5.97514 3.4
13 2.98757 6.4
14 2.98757 9.7
15 100 3.3
16 100 3.1
17 100 2.7
18 100 2.65
19 100 2.6

Angle Coeffs # cosine/squared

1 2.39006 127
2 2.98757 134
3 2.39006 100
4 83.652 96
5 2.98757 100
6 5.97514 150
7 2.98757 180

Dihedral Coeffs # fourier

1 1 95.6023 1 -120

Improper Coeffs # harmonic

1 5.97514 0

Atoms # full

1165 1003 4 0 3.73183999633092 11.057530359137502 7.7056143533601755 1 0 1
2522 2360 17 0 6.477324817013919 8.105147612261344 20.161513509475416 1 1 0
1529 1367 4 0 11.164720395098518 11.668494014202114 15.615411188034932 1 1 0
786 624 4 0 16.849629874226327 13.513635868752484 4.443863382822176 0 1 1
1382 1220 4 0 15.9556215331094 12.45710624903304 14.415883831861025 0 1 1
350 188 4 0 11.67642593831878 13.545473989907043 9.899179701304947 1 0 0
637 475 4 0 8.498967611455418 9.585861432240096 11.282464548941329 0 0 0
1050 888 4 0 7.805842915867604 8.328288542570293 6.325218635648288 1 1 0
729 567 4 0 10.3423669484209 4.761066738469661 10.83059175129099 0 0 1
486 324 4 0 13.981363056588403 8.818742766175296 10.159817351183413 0 1 0
2058 1896 4 0 15.363957382866591 3.768186590667316 10.937046479218038 1 1 1
402 240 4 0 6.666440854918788 2.1526855968249663 13.737407851028918 0 0 1
947 785 4 0 2.5149077439613365 11.455047696294367 2.5304831969704042 1 1 0
2359 2197 4 0 7.2690199477001745 14.497071132663915 7.176903781487388 1 0 0
341 179 4 0 12.137147703739252 10.676438215426396 4.94398751024012 0 0 0
2393 2231 17 0 4.609722798297651 8.274797638301925 15.938813498140819 1 1 0
843 681 4 0 11.834816980306368 7.818804931344258 0.6249346021945421 0 0 1
1092 930 4 0 6.123891025142621 13.740148766050647 17.572976925486614 0 1 0
2174 2012 4 0 3.6558580957955122 13.363834492367438 11.891335787370352 0 1 0
1587 1425 4 0 12.569544847189224 5.84393355983965 6.5347172772444875 0 0 0
641 479 4 0 6.015384920487649 15.129524451824013 2.295580688881661 1 -1 1
1110 948 4 0 16.553725231762904 3.31809540804771 6.093013657763861 0 -1 0
2008 1846 4 0 13.880732320941553 3.763924101391297 1.6944096451708222 1 0 0
650 488 4 0 15.325199297025316 17.261979433941093 8.59579175142848 0 0 1
222 60 4 0 5.4389459753656775 4.6801006501079225 9.530427016971476 0 0 0
945 783 4 0 24.06885982759092 0.5631908967151418 17.898096236235496 0 1 0
2378 2216 4 0 12.476944039928041 15.6448536551045 4.7156947563400875 0 1 1
525 363 4 0 2.7935735504139845 6.403101359418131 5.0676738608945575 0 0 1
428 266 4 0 16.30301902811087 8.084772784319727 3.8221293870748148 0 0 0
2435 2273 17 0 15.211883526998927 1.5565522837092747 16.370632882702626 1 1 1
217 55 4 0 12.475274882399997 0.9563687318937613 6.720872487683927 1 0 0
1057 895 4 0 1.068376372026246 2.9580713587046077 0.8823273105325956 0 1 0
259 97 4 0 7.117578067961058 9.872965738591681 1.3871122545352643 0 0 0
1524 1362 4 0 33.58261859704465 1.1752378638727177 16.07659474795669 0 1 0
187 25 4 0 18.518174387898895 17.934915821916434 2.2890176469062298 -1 -1 1
1850 1688 4 0 3.7026068024098913 17.76039091775764 14.8997311777676 0 0 0
784 622 4 0 8.04222198453582 15.108811098789477 13.237886496862423 0 1 0
536 374 4 0 2.53310685358621 0.7096637622173475 5.822932882820444 0 0 0
1492 1330 4 0 16.467686016032545 6.962385413549028 14.385610136841969 1 0 0
2395 2233 17 0 0.96737198783145 16.897873902535686 6.733464396800622 1 0 0
2465 2303 17 0 6.963252972477381 3.8736433117502767 2.2507326543124178 1 1 1
2004 1842 4 0 1.0880448189071075 2.449691891350807 11.810263560907137 1 0 1
474 312 4 0 18.72214376816393 7.591215493924606 8.274007418376192 1 0 0
476 314 4 0 20.50982251904306 4.198696472997626 15.650891334948936 1 1 0
1191 1029 4 0 17.07369031319212 12.622844275236556 9.041242028549958 0 0 0
1487 1325 4 0 20.48560739536405 11.217559867200068 12.61697458505037 0 1 0
1936 1774 4 0 28.941261704676172 2.7608512881442016 9.905708319526942 -1 0 0
374 212 4 0 32.959122454720884 0.8256709245816625 3.2573835439153305 0 0 -1
1876 1714 4 0 24.553229224156777 1.989584200667593 6.986249553188146 1 1 0
1335 1173 4 0 19.85749997681009 1.7244618992318408 9.861942758380968 0 1 1
2541 2379 17 0 29.47695969011745 11.893930531467332 13.351750789699881 0 1 0
529 367 4 0 27.298879645923826 6.648651698222194 12.653168785707853 0 0 1
2418 2256 17 0 22.95733232181778 11.714881911057018 3.9424541178914363 0 0 1
2259 2097 4 0 24.394111401531223 10.107942286705601 9.91265898073301 1 1 0
1060 898 4 0 26.156256931065524 6.393022490833069 2.0195025566900586 0 1 0
1627 1465 4 0 23.726487493370847 15.26907858960364 10.600748194885135 1 0 0
1601 1439 4 0 22.1928349778342 6.168420885582265 11.27721908665348 0 1 0
1523 1361 4 0 28.50083392531953 2.5186228865166522 15.573068189530332 0 1 1
647 485 4 0 28.509527029873507 10.118951469987133 3.926519218773613 0 -1 1
1344 1182 4 0 32.812184708604356 9.90921520951236 0.5722111627671468 0 0 1
2329 2167 4 0 27.732044749982776 13.348044369755195 7.824336524306938 0 1 1
534 372 4 0 26.261765941661267 6.402301481359258 7.527873486735423 0 0 0
2586 2424 17 0 32.41966836776596 6.7299398114733595 6.132428214115624 0 0 0
959 797 4 0 34.10254970361166 1.590910945959345 11.371075512461223 0 0 0
204 42 4 0 32.50490171185605 5.591165268028061 14.113343767922636 0 1 0
1477 1315 4 0 21.887877802351756 5.611227022212462 5.182877128504667 0 0 1
2564 2402 17 0 25.063460907535518 11.763977223854065 15.927720418754582 0 1 0
516 354 4 0 20.334863042520205 14.946931971692809 16.645398342869882 0 1 0
2280 2118 4 0 31.249227516817783 4.967026008263377 0.45272231636635524 0 0 0
2279 2117 4 0 19.08602238688777 3.7401335280404355 1.4810382848812913 0 0 0
2400 2238 17 0 32.26552186834754 10.032665649148642 9.95790260866277 0 0 1
2360 2198 4 0 28.0445136610539 14.992981889045307 2.238173702606512 1 0 0
2028 1866 4 0 28.795498720524 1.8552974304448206 4.800164526758586 1 -1 1
230 68 4 0 19.03992478911025 10.369634843574271 17.546107361821143 0 0 0
1259 1097 4 0 23.886255463560477 1.577081542026865 12.782756277626444 0 0 0
1715 1553 4 0 20.063683457324494 16.49751216298904 6.8180932167316755 0 0 0
2176 2014 4 0 23.90960812731582 2.3103899584850542 1.5783573281547498 0 1 1
1546 1384 4 0 0.6052584014225033 21.04345079283759 12.040360496391159 2 1 0
1532 1370 4 0 32.257074947691926 13.875107610163704 4.893887832744717 0 1 0
1386 1224 4 0 12.896971785412521 16.839175429893153 13.672095412921829 0 1 1
752 590 4 0 18.86143935488823 16.229285119248804 12.146278025202106 -1 0 1
908 746 4 0 14.71696800421986 20.718742015872863 1.9479974906969633 0 1 1
1245 1083 4 0 4.986146876921307 19.044135374880945 10.403730577187432 -1 0 1
2601 2439 17 0 4.526186230680365 28.494618433700406 7.070407374784734 1 0 0
775 613 4 0 10.34429269119443 17.99154008089794 9.695896414481805 0 1 1
1868 1706 4 0 17.409453012538687 21.492379155667496 6.355669865877228 1 0 1
2131 1969 4 0 8.570997730650273 23.31970485225591 9.074477950067056 0 1 0
214 52 4 0 14.729407441812322 25.757580703224008 4.334143225520794 0 0 0
2528 2366 17 0 9.559557599819282 28.26462902288163 6.316084341949195 0 0 1
1544 1382 4 0 11.641601755467185 24.46399270071142 13.962017751355248 0 -1 1
989 827 4 0 6.137750334275586 23.753562533395957 3.8123397376268806 0 0 0
1175 1013 4 0 11.889508381122775 21.22848001666434 5.957871631954708 0 1 1
1146 984 4 0 13.996253908252907 24.52335093661661 8.976708514854245 -1 0 1
1623 1461 4 0 8.516975514477258 20.70217030847224 13.546451183009216 1 0 0
1018 856 4 0 4.359559538562685 24.528795307722557 12.055931918434585 1 1 0
1740 1578 4 0 3.556281705596343 21.99362896001777 16.51642570736234 1 0 0
1442 1280 4 0 11.878148090204812 0.5862269918105198 33.35897511170503 0 1 0
563 401 4 0 8.082352750114094 27.545285688415266 11.795039994288146 0 0 1
244 82 4 0 6.5748680116452745 32.17614732685665 14.476250205224273 0 -1 0
464 302 4 0 16.01830941119473 20.45437859685933 12.052798830838443 -1 0 1
652 490 4 0 7.420016791979768 19.228418722536926 5.918617434127101 1 0 0
1207 1045 4 0 0.40374702401035095 33.64718835546155 16.353984928549806 1 0 1
2623 2461 17 0 16.866823453280503 30.053627143871186 14.798081793979962 1 0 0
508 346 4 0 6.1232527567223105 26.18075370462819 16.366062530379246 0 1 -1
2331 2169 4 0 8.996619891884572 32.83499367540903 19.02812164948526 1 0 0
923 761 4 0 15.597050847335654 29.967883735824916 8.598584686323106 1 2 0
924 762 4 0 2.3475688866281734 29.604129227173633 13.050003236258306 0 1 -1
1761 1599 4 0 18.327841325656223 26.742623288598754 22.36469844082957 1 0 1
1171 1009 4 0 18.37998255495717 24.245310904892794 1.6942631891179356 0 1 0
1647 1485 4 0 3.265173600455781 22.47626197643758 7.767017305702322 0 0 -1
2268 2106 4 0 0.9368527016012443 24.23857992430945 3.6243246342236084 1 1 0
2353 2191 4 0 10.599020966501875 24.201634395238088 1.5120448155754298 1 0 1
946 784 4 0 9.613891637999195 19.443721632737354 1.3215257319365536 0 0 0
2308 2146 4 0 10.518377900205332 29.087298986756185 16.07426454583991 0 0 0
354 192 4 0 26.01008575472124 17.662454213758597 22.75875670845184 0 0 0
751 589 4 0 14.598326048040999 31.538605888387817 4.221083599929941 0 1 2
1285 1123 4 0 31.78867295410466 24.286079142307162 20.495827715797756 0 1 0
2573 2411 17 0 3.8796508376067496 32.971402071184656 4.042181975094706 1 0 1
2380 2218 4 0 8.966990307452171 30.401689444965886 33.54849205377703 0 1 -1
2563 2401 17 0 6.006746788713163 33.005569762745466 8.32056489882122 1 0 1
944 782 4 0 11.521750543962101 31.1621760740413 11.434982878706842 0 0 0
779 617 4 0 3.8379557742060406 20.028860909102455 1.4482376238504304 0 0 1
131 1 10 0 33.68428629391058 29.616969441235295 19.187489482559176 0 0 0
328 166 4 0 19.264731436894863 19.876534745057075 15.847192359674672 0 0 0
1914 1752 4 0 32.69565083804766 16.730896722771217 9.194871816589817 0 0 1
1917 1755 4 0 19.06930679291955 29.71427359408066 4.199404237560929 1 1 1
297 135 4 0 21.7403756446658 21.50194917907822 4.2924180635630895 0 0 1
1310 1148 4 0 23.779130941645462 25.599463564295853 2.3107843746548995 0 -1 1
492 330 4 0 27.778587006272293 17.95371043969139 10.763548764923717 0 0 0
1872 1710 4 0 30.371439085227472 18.081641749796173 15.201449694487575 -1 0 1
2487 2325 17 0 21.20549636377229 30.370091485093464 11.768961008660963 1 0 0
1397 1235 4 0 28.50874674021751 28.64027697182068 3.723248871205054 0 0 0
1232 1070 4 0 26.580168237005257 20.95783104270422 1.984595871155158 0 -1 1
2553 2391 17 0 18.907075873634668 25.620146684891004 12.866146504715722 0 1 0
2556 2394 17 0 22.225311387673717 21.35488296487097 10.555335235747838 1 1 1
2572 2410 17 0 23.581325377917334 26.278757763251146 11.514337813382015 0 0 1
572 410 4 0 29.919968810696204 19.30440132611421 5.9997952019659095 0 0 0
2551 2389 17 0 25.9184918306002 30.664586397956892 13.564575121724703 0 0 0
1295 1133 4 0 25.247962691620458 17.588143879842484 5.970050461585792 1 -1 1
2615 2453 17 0 26.00671224866128 23.02809615510765 8.025425196983143 1 1 0
2542 2380 17 0 28.10526571057982 28.159842241634376 10.095740619036722 0 0 1
1848 1686 4 0 27.37456757382809 22.408234722013255 14.164838788479132 1 0 1
530 368 4 0 19.58335552756018 25.807230742618803 6.765138900815253 -1 0 0
568 406 4 0 33.64782975365598 29.883582721603197 8.704270892468868 1 0 0
2118 1956 4 0 30.911773361831795 25.707834457702702 15.763756433470668 0 0 0
1845 1683 4 0 32.765096306346166 29.91689334279035 13.874451509525038 -1 0 1
1224 1062 4 0 30.828687686912726 23.870530432662118 2.2229107835744264 0 0 1
2387 2225 4 0 31.904952741670854 24.56180271086007 7.226726211902392 0 0 1
1790 1628 4 0 33.569197298731645 28.823375193478043 3.6492407870555637 -1 0 0
1688 1526 4 0 30.992247155711272 21.291193828370957 11.005452671465353 0 0 0
1673 1511 4 0 29.605428836274786 32.608372580375644 6.1543666789273495 0 0 1
1893 1731 4 0 23.913535848584786 29.429477999710418 6.289119975028759 0 0 1
1859 1697 4 0 23.492687679815905 22.446941118268928 16.99730410027446 0 1 0
2184 2022 4 0 24.70855742095314 17.711546214958922 15.058828886355926 0 0 0
1170 1008 4 0 12.5860563096896 34.06129348770687 32.38290969697843 0 -1 0
363 201 4 0 12.425932105557779 28.561833254732598 0.5027255890374918 0 0 0
1270 1108 4 0 25.303111717881645 32.96106324513581 3.5615861614594366 0 0 0
595 433 4 0 23.238203114565895 17.115140196528504 1.7402504457565882 0 0 0
2407 2245 17 0 8.32569667814829 32.82025984691074 3.471319273518051 0 0 1
138 1 10 0 31.30864396401034 32.973596602422084 22.168559510119138 0 0 0
1911 1749 4 0 34.19197875598202 20.960664689542813 4.275177676900275 0 0 0
1355 1193 4 0 34.116320229956486 25.683040042076723 11.345641333897442 0 0 1
2608 2446 17 0 10.916317981807573 5.805416101457948 16.56998095201461 1 1 0
692 530 4 0 15.853130267920642 16.239341937912606 17.856719272686536 0 0 1
1665 1503 4 0 3.2367165130907 4.584452499107397 34.09621544625974 1 0 0
2285 2123 4 0 22.51267296837781 27.02966648038344 25.636327623568835 1 1 0
894 732 4 0 6.671626661853015 3.2555178922306522 29.82062826450582 0 1 -1
2372 2210 4 0 3.200452404652611 8.118735766303631 25.87083604955222 1 1 0
2132 1970 4 0 5.5208333281103705 13.395328569595064 22.20021835978638 2 0 0
2479 2317 17 0 7.397917328214048 2.7559175427674787 19.687922999045387 1 0 0
1463 1301 4 0 7.011167811703448 15.354045915520834 29.821120466542844 0 0 0
854 692 4 0 14.605979948480128 4.42545958188666 32.13591311729545 -1 0 0
1354 1192 4 0 3.808832522715422 3.329867897378259 25.156160052553034 0 1 0
1028 866 4 0 10.367500755483704 6.415888689933474 30.162528035766172 0 0 -1
975 813 4 0 7.988584311595362 6.281147295049023 25.736477543117584 0 0 1
1022 860 4 0 3.1216553272745884 15.7940120061971 26.60670026090112 0 1 0
2327 2165 4 0 12.81675555274759 6.828051768795731 22.319679396074772 0 1 0
2097 1935 4 0 7.238592145387642 11.023910854247204 27.093974504498654 1 0 0
1957 1795 4 0 1.157832803139369 11.35648126620736 21.997308877897204 1 0 0
837 675 4 0 16.039996282602083 10.269601304928887 23.79425921644732 0 1 0
1856 1694 4 0 13.775164521937453 15.110260457497393 22.911677710499184 1 0 -1
489 327 4 0 10.52697678819946 15.265840350399065 19.10055846112107 1 0 0
377 215 4 0 8.818324149972737 10.946234108466163 32.19261516763282 0 1 0
1430 1268 4 0 4.87563676396564 7.922846850027427 30.617460432496493 0 0 1
1275 1113 4 0 9.215160774928478 1.425308349293348 25.455713078825703 0 1 0
391 229 4 0 9.152328640619062 15.996846387330077 24.570710853579 0 1 -1
1970 1808 4 0 13.585205349429277 4.419270964260945 27.225761390134736 0 -1 -1
1033 871 4 0 14.364463693015805 11.430654384106687 19.001182074092643 0 0 0
1346 1184 4 0 2.7812266079114103 12.347147011586843 30.177344899102497 1 1 0
1010 848 4 0 11.486773741196185 14.252642230096155 28.78601671385456 1 1 1
453 291 4 0 12.143834529052688 9.481106417558882 26.730576141279645 0 1 0
634 472 4 0 14.019579891323161 2.1066171035253882 22.7446470518317 0 0 0
1930 1768 4 0 10.360208516973769 11.614815432802029 22.67049068595491 0 0 1
2620 2458 17 0 2.8019660519554823 4.800452020436038 19.87900554149329 1 0 1
2557 2395 17 0 17.35622742444656 15.526817465937562 32.54999246773734 1 0 1
2300 2138 4 0 13.724289088269494 10.731303221889636 31.166987669355454 0 1 0
2365 2203 4 0 10.49885131220625 16.229750833626237 33.4501233021378 1 1 0
1663 1501 4 0 18.790106657154425 13.967101439494025 21.4353316011268 0 0 0
1816 1654 4 0 16.90937848194552 6.89898590541998 19.626795191016 0 0 0
2579 2417 17 0 17.55147461575417 14.190319449042544 27.650983377511476 0 1 0
1819 1657 4 0 17.407738725562087 7.687610237397407 28.199754867371396 1 0 1
2458 2296 17 0 24.970223848650306 7.22158602813595 18.363314446556714 0 0 1
2055 1893 4 0 31.135329539197702 0.6510562118640024 20.759948205310877 -1 0 1
1178 1016 4 0 31.665090593593973 5.504126403579689 18.778874654522372 0 1 0
2624 2462 17 0 25.67663793431955 0.958141622207827 32.15221527074863 0 1 0
955 793 4 0 19.485963834394614 2.4232428980642338 20.321987216506194 -1 1 0
2032 1870 4 0 17.947469695911952 2.1019196679724383 29.0496147366203 0 0 0
567 405 4 0 33.2219230759028 17.649166963453336 30.906230162624137 0 0 -1
1039 877 4 0 29.65327895572234 7.283064493043528 32.57217777857297 0 0 -1
475 313 4 0 19.95066227027818 5.543158675728108 31.905640034709474 0 0 0
406 244 4 0 32.4827033549969 4.1940362445010555 24.914873454899002 1 0 1
265 103 4 0 24.29501428852474 7.358490720664429 32.91276543915251 0 0 0
252 90 4 0 17.711870214090396 5.209726579533969 24.010177004564447 0 0 0
1137 975 4 0 26.590591176007983 10.543859286187955 30.53980539934888 0 0 0
2456 2294 17 0 21.617532446362027 11.203529388112482 26.08815979195262 1 0 0
2587 2425 17 0 22.545232694488753 7.684093774128877 22.342936776476343 0 1 1
1306 1144 4 0 29.05000503118598 7.896083170809954 23.41351458706843 0 0 0
1879 1717 4 0 30.60676870685778 3.1928497203436264 29.237794494304296 0 0 1
2423 2261 17 0 24.74591144204636 11.762080014470785 21.147155395656384 1 0 1
403 241 4 0 26.99705219581079 1.4250316877622882 26.49056898584933 0 0 0
1734 1572 4 0 32.07553991275018 7.757568797559795 27.83674417177981 0 1 0
805 643 4 0 27.864640297783037 11.969427353055233 26.25302256274087 0 0 0
553 391 4 0 29.355069746597465 15.317268459149002 19.271023472906627 1 0 1
941 779 4 0 26.198739347729994 6.388872013763257 28.090643334680205 0 0 0
1566 1404 4 0 30.555333592725745 10.525326556270132 19.518625306828177 0 0 0
394 232 4 0 21.652542690217203 4.766346364137333 27.56377668528137 -1 1 0
828 666 4 0 31.58315097363877 12.250518981624575 29.390788328756933 0 0 0
1411 1249 4 0 22.343713969484202 1.3842351505954433 24.26971340059556 0 1 0
2317 2155 4 0 20.278060605692783 10.625902843917997 31.580298978819734 1 0 0
1061 899 4 0 25.18402689192021 15.636020960548487 27.80718191511395 0 1 0
2306 2144 4 0 27.432271210213557 3.4129330168884793 22.054384416683572 1 0 0
1962 1800 4 0 23.435848399157518 14.325589703312223 32.466109107180806 1 0 1
720 558 4 0 28.994673710901438 14.909309284245527 32.418437494485076 0 0 1
961 799 4 0 30.22749503658931 16.329839149255385 25.547317353958764 0 1 0
660 498 4 0 32.00481152190561 11.967959996026279 24.208303811973487 0 0 0
97 1 6 0 32.197340282348286 32.778187844567704 32.40318060671165 0 0 0
1265 1103 4 0 21.5323636178348 17.23442477526172 23.966222892236207 0 0 0
644 482 4 0 22.55847983419273 18.23077903480299 19.335568150764082 -1 0 0
258 96 4 0 1.285220886030985 7.714866601074079 10.964601176190707 0 0 1
465 303 4 0 12.579100672782367 20.094377294099694 17.580899618637552 0 0 1
2369 2207 4 0 34.027089722704645 7.563343748976798 22.114947432187513 0 1 0
880 718 4 0 12.485424716365177 25.91453479210653 33.067455082388705 0 0 0
1838 1676 4 0 4.73251528409234 22.238848961439437 29.601167810263348 1 1 1
915 753 4 0 2.8773999545373186 17.521982092747976 32.088653286068485 0 1 -1
967 805 4 0 3.126323913971274 18.63829405402175 20.39612600322148 1 1 0
2475 2313 17 0 15.562557462994416 18.75311531297939 27.69842899901152 1 1 1
523 361 4 0 14.726798908015581 24.8769323480581 18.194214955775127 0 0 0
2033 1871 4 0 6.1606040273723455 20.266221412930943 24.460535473082565 1 1 1
1571 1409 4 0 17.25097756464991 18.591371926899146 21.667506828113567 2 0 0
2612 2450 17 0 15.233939028984796 31.128742858337453 19.0525574154578 1 0 1
231 69 4 0 8.358733427127632 23.829729182593915 19.64170977534634 0 1 0
1347 1185 4 0 16.719345575791113 30.068926578613013 25.77750182232443 -1 0 1
1798 1636 4 0 3.179052147211775 30.245780547464296 18.569096683242623 1 -1 0
1509 1347 4 0 7.456396172360853 33.258432517861365 29.94856270551136 1 0 0
739 577 4 0 3.0740590704872552 31.3493587017793 28.592671032427177 0 1 0
2498 2336 17 0 0.8206914427215528 24.57472553844032 21.215118619347063 1 0 0
815 653 4 0 14.483075342531889 29.766514944857814 30.961692304413898 -1 1 0
2288 2126 4 0 11.083365204787684 19.506849032275383 22.199442163984926 0 1 -1
1863 1701 4 0 7.819621004750054 24.146168353530665 33.46322444654485 1 1 0
2531 2369 17 0 10.359927401095891 20.250029763902237 29.21843906308799 0 1 0
2218 2056 4 0 1.8696425329709987 29.961869838037778 23.712875756168152 0 0 0
2463 2301 17 0 12.12185696515185 28.894183802511616 22.276757335643687 0 0 0
706 544 4 0 14.847918632341694 22.963000722266138 22.934745178277424 0 -1 0
794 632 4 0 8.93053129737939 27.168665628398003 29.62097614514867 1 -1 1
1210 1048 4 0 4.132018867275216 27.563392418151384 31.951238049427236 0 1 0
616 454 4 0 9.083536504099186 24.530894729779817 25.17711926216936 0 0 0
1737 1575 4 0 7.600387384684046 19.06294522642851 18.315230637688018 1 1 0
2023 1861 4 0 5.939840212121768 27.712176049970925 22.186329343868618 0 0 1
897 735 4 0 4.727466267300479 26.341956613863758 26.662898982948562 1 0 0
2532 2370 17 0 16.963465186475364 21.393679261898146 31.527135169316676 0 0 0
1771 1609 4 0 13.819761904132301 25.177779485942864 27.818149844592355 0 0 0
1036 874 4 0 1.6915148759399017 3.7909067531839384 29.314534550146295 1 1 1
2208 2046 4 0 11.875476088819221 32.90039606010997 27.385273131922993 1 0 0
865 703 4 0 7.325936371085055 31.36292380580135 24.97234644013571 1 0 -1
1046 884 4 0 31.28958924796641 34.331844803309885 10.348281409898227 0 0 -1
905 743 4 0 22.58467028035109 23.948497538035145 30.336350688439506 0 1 0
141 1 9 0 30.93265636128852 33.014544587410924 27.555472601481227 0 0 0
273 111 4 0 18.71862189182709 31.72097282964961 33.177863892938944 -1 0 -1
1480 1318 4 0 28.906213878911455 19.680158785880735 28.876316396987686 0 1 0
1891 1729 4 0 28.113418989679563 20.41345558420372 19.014710877813833 1 0 1
136 1 3 0 34.15773809850294 34.24758476358344 21.15351363894798 0 0 0
127 1 3 0 30.940998785247686 28.301262231515782 24.478788196834504 0 0 0
128 1 10 0 28.053144526634597 27.506757080696147 23.18243806384889 0 0 0
96 1 6 0 32.021884872208894 30.612078946064436 33.978701538745796 0 0 0
1965 1803 4 0 20.00449553646608 22.50499051688684 24.96760895692574 0 0 1
122 1 11 -1 33.998429621373496 21.435497010551877 26.68307505783979 0 0 0
1659 1497 4 0 24.279360294905892 29.15712112934924 30.973062187336804 0 0 -1
139 1 9 0 28.908705041750128 33.26608391031121 22.73051012075364 0 0 0
1645 1483 4 0 21.48615046091779 27.450582560389492 18.07756872893555 0 0 0
123 1 10 0 32.21954144633415 26.35896406603382 26.301418372369056 0 0 0
121 1 10 0 34.03194395116455 23.546609452944516 24.626500558114614 0 0 0
140 1 3 0 32.69299171927141 32.891211288949805 25.75326943711224 0 0 0
2310 2148 4 0 25.0741899527771 19.373627667643902 31.926274992368903 0 0 -1
132 1 4 0 29.858233084913124 29.834543990181007 18.459908733400784 0 0 0
101 1 8 0 32.9355465061772 25.804986958105722 32.00439289970562 0 0 0
1929 1767 4 0 29.095751958246918 21.850486156535855 23.96360552815423 0 0 0
1776 1614 4 0 19.479749452977476 22.816552526876222 19.911543799032437 -1 0 0
2358 2196 4 0 25.095641325123708 30.425778592806708 20.356676769907533 1 0 -1
1378 1216 4 0 26.70414470262394 25.991196869777344 18.430280226560438 0 0 1
2256 2094 4 0 27.612331110430638 25.0910756519052 27.99191332239961 0 0 0
630 468 4 0 20.22030571683816 31.72374282276362 22.798331008969026 1 0 0
495 333 4 0 26.922811892363878 33.661190392994904 30.885866127497334 -1 -1 0
1774 1612 4 0 21.233245988737448 18.373034254797464 28.85545184735446 0 0 0
2322 2160 4 0 26.608432068466655 31.105232829935975 26.39328300782486 0 1 0
1023 861 4 0 21.753820567438517 31.89293405523474 27.346878956225492 0 0 -1
129 1 10 0 33.77774829662626 28.58616536053173 22.108530950297475 0 0 0
937 775 4 0 21.91648918770808 33.070616566554996 17.556608708873917 0 0 0
441 279 4 0 19.00271522687025 28.029823897558984 30.00976991192433 0 0 -1
1992 1830 4 0 31.997583625733387 18.952096787320013 22.055949585795734 0 0 1
102 1 1 1 31.88165250867459 23.605804547540824 30.67760974282662 0 0 0
2257 2095 4 0 29.778183448636355 29.022849080891408 29.928888471241756 1 0 0
1048 886 4 0 24.25924728552046 22.82333226380009 21.980016656278497 0 0 0
419 257 4 0 24.812780049157197 20.889049781077635 26.511762733835933 1 0 -1
229 67 4 0 33.650088367159846 21.373536359266765 16.786346452635595 0 0 0
1428 1266 4 0 0.45798623043255304 14.453358536693509 18.104622248333552 1 0 1
2199 2037 4 0 25.324633048180107 34.17295087756677 8.45464170416745 0 0 0
321 159 4 0 31.982134469719355 34.28972044087494 15.584550139768282 -1 0 -1
324 162 4 0 17.098736159248848 34.34964125555843 28.83534939336233 0 1 0
2363 2201 4 0 19.68359412007089 34.133523229750885 6.66090913432041 0 0 0
2165 2003 4 0 6.940262947188215 27.62484119084777 0.5590709690738009 1 0 -1
1132 970 4 0 33.95594383086534 6.25636181154034 34.29705712837984 0 1 0
1300 1138 4 0 18.727101452159623 33.68287303753396 1.0168768440464788 1 0 1
166 4 4 0 1.4427154637014379 28.418922836020112 0.9156376027058997 0 -1 0
1628 1466 4 0 3.1547374834633204 12.454801428458948 44.33151877520768 0 0 -1
986 824 4 0 9.652594212063455 9.049494719362832 43.93477748237136 0 1 0
1391 1229 4 0 11.265184323082819 7.463822624815929 48.698606820790566 -1 2 0
1434 1272 4 0 1.44803555120224 6.961949753189424 43.25071752734979 0 1 -1
1839 1677 4 0 5.3676332089974075 9.178077130056241 40.60038174723492 0 0 0
2348 2186 4 0 7.325578140986249 4.68690665411469 44.21229310609403 1 1 0
1636 1474 4 0 9.392916123633933 6.409456842292103 39.640139433198065 1 0 0
1252 1090 4 0 14.773567738279816 7.884864149211376 44.33519767873369 0 2 0
2590 2428 17 0 7.068972240546297 11.967578194254578 49.540161084643955 1 1 1
2361 2199 4 0 4.371531663374712 5.0028830130093525 38.53095782585614 1 0 0
2247 2085 4 0 16.5162961713777 6.171386399699478 39.75788395477318 1 0 -1
2442 2280 17 0 4.339451191124736 7.583078040792436 48.88539741971868 1 1 0
893 731 4 0 17.00954546762878 6.23228190445182 48.34588003883515 0 0 0
2048 1886 4 0 1.1988985733749424 10.408871836522033 38.46255253354689 1 1 0
1552 1390 4 0 12.970457248292588 4.077867658700858 42.27335151215907 1 1 -1
362 200 4 0 8.193052921718332 13.70403152040426 42.73872659090634 2 0 0
1205 1043 4 0 12.84294729129139 9.90783393844492 39.83179234931452 1 1 1
1778 1616 4 0 17.432731263677532 12.311035143480575 37.88581490571449 0 0 1
1804 1642 4 0 11.870755197546277 12.789075809483112 45.7731081198656 0 0 0
1719 1557 4 0 8.841101840199512 11.98441915625852 37.948499903974565 1 0 0
852 690 4 0 15.859682935246806 12.74060031124142 43.11412465813088 0 0 1
1396 1234 4 0 15.497463333796743 11.009550656597606 48.912413517497754 -1 1 0